variables="k","x","y","vx","vy","pressure"
zone i=8064 j=1
0	9.5551e-03	1.4362e-02	1.9968e-01	-8.2488e-03	1.5904e+04
1	5.5402e-03	3.6610e-02	2.3169e-01	1.5986e-01	1.5986e+04
2	1.2393e-02	3.4249e-02	-1.6726e-01	-3.6076e-02	1.5731e+04
3	1.4702e-02	5.3727e-02	2.2186e-01	-6.1313e-02	1.4424e+04
4	1.6411e-03	6.3454e-02	-4.3455e-01	2.6939e-01	1.5115e+04
5	1.0499e-02	6.2817e-02	4.1134e-02	3.3440e-02	1.4688e+04
6	6.4732e-04	8.0250e-02	2.5720e-01	-7.6654e-02	1.4476e+04
7	2.2725e-02	9.4240e-02	1.5524e-01	8.0781e-02	1.3477e+04
8	2.9307e-04	9.6637e-02	-3.7125e-03	-1.8776e-01	1.2907e+04
9	1.7599e-02	1.2128e-01	1.2496e-01	1.6830e-01	1.3123e+04
10	1.1260e-03	1.3079e-01	3.4370e-01	8.8146e-02	1.4349e+04
11	7.2243e-03	1.4337e-01	8.9067e-02	1.8805e-01	1.3777e+04
12	6.5789e-03	1.5013e-01	1.0266e-01	7.6485e-02	1.3460e+04
13	6.6809e-03	1.5860e-01	-4.4595e-02	2.3180e-01	1.3889e+04
14	8.1721e-03	1.6662e-01	-2.6198e-01	8.6009e-02	1.4052e+04
15	8.2827e-03	1.7290e-01	-2.7038e-01	1.8001e-02	1.3726e+04
16	6.2875e-03	1.8253e-01	-6.8577e-02	1.0192e-02	1.2908e+04
17	3.0539e-03	1.9298e-01	1.1377e-01	2.5192e-01	1.2144e+04
18	7.7379e-03	2.0024e-01	2.8110e-01	-4.6456e-02	1.2237e+04
19	7.4514e-04	2.1315e-01	5.5514e-01	-6.2119e-02	1.2581e+04
20	1.3077e-02	2.2665e-01	-4.2696e-01	2.6044e-01	1.0575e+04
21	2.2796e-02	2.3683e-01	3.9491e-01	9.0679e-02	1.0494e+04
22	1.4597e-02	2.4894e-01	-4.7716e-01	4.1033e-01	9.0155e+03
23	1.7944e-03	2.6015e-01	-5.0655e-01	2.6758e-01	1.0180e+04
24	9.1817e-03	2.7131e-01	3.9492e-01	2.3409e-01	8.9061e+03
25	9.4839e-03	2.7850e-01	3.4126e-01	8.5732e-02	8.4674e+03
26	7.1499e-03	2.8696e-01	4.6945e-01	2.8245e-02	8.2760e+03
27	1.4993e-03	2.9778e-01	-8.7926e-03	1.2217e-01	7.4064e+03
28	6.3767e-03	3.0823e-01	1.0519e-01	2.1929e-01	7.5494e+03
29	6.6076e-03	3.1730e-01	-1.8605e-01	2.6862e-01	7.6052e+03
30	7.0393e-03	3.2583e-01	-3.7008e-01	2.2217e-01	7.6177e+03
31	9.0738e-03	3.3507e-01	-1.1860e-01	8.3971e-02	6.5916e+03
32	3.4474e-03	3.4878e-01	3.8227e-02	4.1846e-01	5.2753e+03
33	8.6933e-03	3.6112e-01	-8.5143e-02	6.2408e-01	5.1712e+03
34	1.1059e-02	3.6759e-01	-8.9948e-02	3.2380e-01	5.1270e+03
35	7.7830e-03	3.7490e-01	-3.7549e-01	2.2585e-01	6.0081e+03
36	8.0300e-03	3.8302e-01	-2.3021e-01	2.2774e-01	5.4592e+03
37	9.4891e-03	3.9213e-01	-3.9018e-02	2.6257e-01	4.4580e+03
38	8.9662e-03	4.0065e-01	-1.7122e-02	2.2135e-01	3.9838e+03
39	9.3993e-03	4.0948e-01	8.0957e-02	1.7682e-01	3.4634e+03
40	9.8619e-03	4.1917e-01	2.0384e-01	2.5460e-01	3.2933e+03
41	6.7329e-03	4.2855e-01	1.9629e-01	3.0175e-01	2.8029e+03
42	2.8208e-04	4.4041e-01	-7.4640e-02	3.2921e-01	1.8102e+03
43	4.1272e-03	4.5302e-01	-3.1537e-01	4.1522e-01	2.9638e+03
44	8.8324e-03	4.6203e-01	-3.1171e-01	4.6578e-01	3.4047e+03
45	1.6294e-02	4.7000e-01	1.1972e-01	3.7868e-01	2.2027e+03
46	2.0614e-02	4.7822e-01	1.5777e-01	2.6339e-01	1.8786e+03
47	2.2110e-02	4.8689e-01	-1.3172e-02	1.9720e-01	1.5119e+03
48	2.2956e-02	4.9631e-01	-1.3048e-01	1.3309e-01	1.1302e+03
49	2.3682e-02	5.0658e-01	-1.6132e-01	6.0651e-02	7.8329e+02
50	2.3990e-02	5.1791e-01	-1.5437e-01	1.6664e-02	4.6551e+02
51	2.3825e-02	5.2996e-01	-1.1451e-01	-1.3881e-02	2.5661e+02
52	1.9491e-02	5.4573e-01	-1.7885e-01	2.9591e-02	2.6409e+02
53	1.7377e-02	5.6447e-01	-7.0256e-03	1.3384e-01	-2.3833e+02
54	1.0819e-02	5.7526e-01	-1.8476e-02	8.7269e-02	3.2510e+02
55	2.5968e-03	5.7688e-01	1.3663e-01	-2.3280e-02	0.0000e+00
56	5.4794e-03	5.8433e-01	9.3137e-02	-4.1799e-02	-1.4899e+01
57	4.5366e-03	5.9687e-01	-1.0180e-02	-8.2821e-02	1.4934e+02
58	9.9064e-03	6.1278e-01	4.3924e-02	-1.7708e-02	1.9935e+02
59	1.7782e-02	6.0771e-01	2.4187e-01	-2.4016e-01	2.6495e+02
60	1.4160e-03	6.5752e-01	1.1800e-01	2.2496e-01	0.0000e+00
61	6.5364e-03	6.7756e-01	1.5514e-01	3.0903e-01	0.0000e+00
62	1.8952e-03	6.4910e-01	2.4673e-01	1.2324e-01	0.0000e+00
63	7.6039e-03	6.2431e-01	-8.0771e-02	3.0994e-02	0.0000e+00
64	5.7229e-03	4.2543e-04	-8.5963e-02	-4.4521e-01	1.5131e+04
65	1.3336e-03	2.0971e-02	8.0856e-02	-6.7664e-02	1.5983e+04
66	2.3306e-02	2.5174e-02	-2.5337e-02	1.1593e-01	1.4968e+04
67	1.5875e-02	4.0983e-02	-3.7886e-01	3.3590e-02	1.4645e+04
68	1.9292e-03	4.8300e-02	1.1280e-01	1.8005e-01	1.4815e+04
69	2.0494e-02	6.2552e-02	-1.1784e-01	-5.7459e-02	1.3590e+04
70	1.5780e-02	7.5824e-02	1.2282e-01	-6.9629e-03	1.4719e+04
71	1.0964e-02	8.0149e-02	1.4644e-01	1.9096e-02	1.4724e+04
72	1.2017e-02	9.1418e-02	-1.1251e-03	2.5720e-01	1.4101e+04
73	1.0799e-02	1.0254e-01	1.6988e-01	-1.1734e-02	1.4019e+04
74	9.2874e-03	1.1283e-01	-8.2588e-02	1.6855e-01	1.3885e+04
75	2.5875e-03	1.1565e-01	-5.0961e-01	4.3563e-02	1.3992e+04
76	1.1882e-02	1.3068e-01	-1.6356e-01	1.6791e-01	1.3829e+04
77	1.7793e-02	1.3475e-01	-6.7305e-02	1.3077e-01	1.3673e+04
78	1.9679e-02	1.4647e-01	-2.8715e-02	-7.4612e-02	1.3735e+04
79	2.0680e-02	1.5498e-01	6.8853e-02	-9.0070e-02	1.3083e+04
80	1.9957e-02	1.6373e-01	3.3573e-01	-1.3735e-01	1.2737e+04
81	1.8044e-02	1.7536e-01	1.5639e-01	-1.0281e-01	1.2228e+04
82	1.8338e-02	1.8153e-01	-4.8010e-02	-1.8450e-01	1.2023e+04
83	1.8330e-02	1.9041e-01	-2.0101e-01	-1.7045e-01	1.2122e+04
84	1.8778e-02	1.9759e-01	-1.5572e-01	-3.6118e-01	1.2332e+04
85	4.4385e-03	2.1797e-01	-3.2673e-01	2.6832e-01	1.2628e+04
86	7.7682e-03	2.3340e-01	-9.2556e-02	2.6174e-01	1.1636e+04
87	8.7837e-03	2.3726e-01	9.0027e-02	-1.7779e-01	1.0831e+04
88	3.9491e-03	2.4703e-01	4.7365e-01	-1.1758e-01	1.0695e+04
89	1.1639e-02	2.6131e-01	-4.1897e-01	8.4399e-02	9.3462e+03
90	1.8867e-02	2.7091e-01	2.9730e-02	5.0222e-02	8.2265e+03
91	1.7589e-02	2.8078e-01	-1.1108e-01	2.6405e-01	8.3390e+03
92	1.6663e-02	2.8975e-01	-2.7187e-01	3.9424e-01	8.7443e+03
93	1.7489e-02	2.9699e-01	-2.4853e-01	2.1280e-01	8.7098e+03
94	1.8605e-02	3.0414e-01	-7.5478e-02	4.0072e-02	8.2036e+03
95	1.9096e-02	3.1219e-01	2.0904e-01	-1.8684e-02	7.6840e+03
96	1.7161e-02	3.2227e-01	2.9543e-01	-4.1438e-03	6.8941e+03
97	1.3862e-02	3.3387e-01	-1.9904e-03	1.2024e-01	6.4548e+03
98	1.3141e-02	3.4310e-01	-8.4031e-02	1.9300e-01	5.7768e+03
99	1.4011e-02	3.4964e-01	-9.6831e-02	3.9307e-02	5.2443e+03
100	1.6480e-02	3.5823e-01	-3.9919e-02	-1.3365e-01	4.3384e+03
101	1.8984e-02	3.7063e-01	9.1492e-02	3.8910e-02	3.3950e+03
102	1.9154e-02	3.8152e-01	1.7055e-02	8.8755e-02	2.7888e+03
103	1.8655e-02	3.9153e-01	-8.9988e-02	4.5077e-02	2.5347e+03
104	1.8238e-02	4.0197e-01	-1.3709e-01	6.0576e-02	2.4838e+03
105	1.7756e-02	4.1281e-01	-1.4678e-01	1.0732e-01	2.4198e+03
106	1.6623e-02	4.2359e-01	-1.9386e-01	1.8163e-01	2.7565e+03
107	1.6236e-02	4.3282e-01	-1.9112e-01	1.7071e-01	2.9898e+03
108	1.7300e-02	4.4044e-01	-1.0993e-02	1.6083e-01	3.1704e+03
109	1.8240e-02	4.4780e-01	2.3960e-01	1.4106e-01	3.5431e+03
110	1.5574e-02	4.5763e-01	1.8896e-01	1.2766e-01	2.4962e+03
111	7.9358e-03	4.7031e-01	-6.4232e-01	4.1173e-01	4.2614e+03
112	8.6779e-03	4.7955e-01	-6.9061e-01	3.7390e-01	3.4602e+03
113	1.1648e-02	4.8752e-01	-5.4779e-01	1.7343e-01	1.6970e+03
114	1.4723e-02	4.9627e-01	-4.2962e-01	-6.2641e-03	6.7548e+02
115	1.7315e-02	5.0634e-01	-3.2636e-01	-1.1503e-01	3.5153e+02
116	1.9055e-02	5.1761e-01	-2.3523e-01	-1.5978e-01	1.7859e+02
117	1.9751e-02	5.2973e-01	-1.4845e-01	-1.7502e-01	9.2825e+01
118	1.7456e-02	5.4268e-01	-1.5247e-01	-1.0754e-01	1.8523e+01
119	1.5683e-02	5.5138e-01	-1.5359e-01	-7.6932e-02	2.0452e+01
120	1.5546e-02	5.5583e-01	-1.5446e-01	-2.0810e-01	-1.3450e+02
121	2.2611e-02	5.6410e-01	-2.2506e-01	-2.1175e-01	6.9877e+01
122	3.1804e-02	5.7466e-01	-5.1806e-02	-2.1415e-01	1.2490e+02
123	3.4227e-02	5.8644e-01	-1.7589e-02	-2.0667e-01	3.3960e+01
124	3.5924e-02	6.0022e-01	3.7510e-02	-1.6336e-01	2.2003e+02
125	1.9094e-02	6.3130e-01	-1.4384e-02	-2.1499e-02	0.0000e+00
126	3.4259e-03	6.3550e-01	-2.9307e-01	7.7012e-03	0.0000e+00
127	2.0019e-02	6.2033e-01	5.1174e-02	-9.3117e-02	-1.7963e+02
128	1.4145e-02	2.2684e-02	-2.5434e-01	2.5749e-01	1.6071e+04
129	1.8667e-02	8.5636e-03	-8.8215e-02	2.4258e-01	1.5208e+04
130	3.0500e-02	2.2498e-02	3.5718e-02	3.9274e-03	1.4690e+04
131	2.7262e-02	3.6974e-02	1.5632e-01	-1.6380e-01	1.3503e+04
132	2.6704e-02	4.3030e-02	1.0667e-01	1.5855e-02	1.3605e+04
133	2.3099e-02	5.4242e-02	-2.6292e-02	8.9394e-04	1.3995e+04
134	2.9998e-02	6.9522e-02	1.3995e-01	1.1418e-01	1.2620e+04
135	2.3793e-02	7.6520e-02	-2.0575e-01	1.1108e-01	1.3528e+04
136	2.5317e-02	8.3635e-02	-1.5829e-01	-1.0471e-01	1.3413e+04
137	2.3195e-02	1.0049e-01	-2.5132e-01	1.5617e-01	1.3326e+04
138	2.0760e-02	1.0817e-01	-4.2698e-01	9.4564e-02	1.3301e+04
139	2.5492e-02	1.1367e-01	-1.0014e-01	3.3004e-02	1.2653e+04
140	2.7564e-02	1.2376e-01	3.8749e-02	-8.2455e-02	1.2503e+04
141	2.6572e-02	1.3056e-01	-4.6816e-02	-6.3117e-02	1.2574e+04
142	2.8878e-02	1.4246e-01	-7.5781e-02	-3.4433e-02	1.2538e+04
143	3.0944e-02	1.5054e-01	-1.0546e-02	-1.2820e-01	1.2129e+04
144	3.2095e-02	1.6230e-01	-6.2929e-02	1.7406e-01	1.2647e+04
145	3.2659e-02	1.7333e-01	-1.7819e-02	-1.6945e-01	1.2846e+04
146	3.0112e-02	1.8639e-01	3.3975e-01	2.4854e-02	1.2694e+04
147	2.3235e-02	2.0077e-01	1.0713e-01	1.6290e-01	1.2678e+04
148	2.0387e-02	2.1028e-01	-1.5324e-01	1.5254e-01	1.2688e+04
149	2.0223e-02	2.1361e-01	-9.9970e-02	-1.5213e-02	1.2600e+04
150	2.2387e-02	2.1943e-01	1.5706e-01	-3.7805e-02	1.2835e+04
151	2.5336e-02	2.2903e-01	3.8419e-01	-1.7935e-01	1.2795e+04
152	2.4671e-02	2.4246e-01	2.1640e-01	-1.3855e-02	1.0532e+04
153	2.2982e-02	2.5175e-01	-1.2281e-01	1.1888e-01	9.7526e+03
154	2.4265e-02	2.5675e-01	-5.8110e-02	-9.3920e-02	9.8238e+03
155	2.7580e-02	2.6478e-01	2.0198e-01	-2.1575e-01	9.8363e+03
156	3.0002e-02	2.7609e-01	3.4566e-01	-1.5985e-01	9.1691e+03
157	3.0474e-02	2.8688e-01	2.9058e-01	-9.7122e-02	7.8591e+03
158	3.0781e-02	2.9683e-01	1.8868e-01	-8.3185e-02	6.9265e+03
159	3.1134e-02	3.0698e-01	5.4069e-02	2.9329e-03	6.6520e+03
160	3.0544e-02	3.1683e-01	-1.4580e-01	5.1768e-02	6.6046e+03
161	2.9526e-02	3.2630e-01	-2.2736e-01	-9.0239e-03	6.2795e+03
162	2.8671e-02	3.3600e-01	-1.6474e-01	-3.8259e-02	5.8897e+03
163	2.8580e-02	3.4531e-01	-1.3481e-01	-1.8869e-02	5.5669e+03
164	3.0201e-02	3.5448e-01	-7.3463e-02	-5.7986e-02	5.0867e+03
165	3.1757e-02	3.6464e-01	9.2477e-03	-7.5865e-02	4.6781e+03
166	3.2036e-02	3.7505e-01	4.4226e-02	-7.0643e-02	4.2542e+03
167	3.1844e-02	3.8526e-01	7.7761e-02	-6.7399e-02	3.6857e+03
168	3.1531e-02	3.9550e-01	1.1416e-01	-4.2212e-02	3.1128e+03
169	3.1085e-02	4.0560e-01	1.2077e-01	-1.7040e-02	2.6126e+03
170	3.0602e-02	4.1546e-01	1.0626e-01	1.2233e-02	2.2533e+03
171	3.0153e-02	4.2484e-01	7.5725e-02	-7.5823e-03	1.8451e+03
172	2.9938e-02	4.3447e-01	-5.9710e-03	4.1029e-03	1.6026e+03
173	2.9753e-02	4.4397e-01	-2.1257e-01	1.1938e-01	2.1879e+03
174	2.9923e-02	4.5277e-01	-4.4319e-01	1.6267e-01	2.5533e+03
175	3.0965e-02	4.6130e-01	-5.1792e-01	6.8005e-02	2.2221e+03
176	3.2541e-02	4.7028e-01	-4.3978e-01	-4.3062e-02	1.8722e+03
177	3.4001e-02	4.8027e-01	-3.1095e-01	-8.7925e-02	1.6405e+03
178	3.4780e-02	4.9107e-01	-2.1946e-01	-1.0293e-01	1.2015e+03
179	3.4769e-02	5.0213e-01	-1.7110e-01	-1.3307e-01	7.7679e+02
180	3.4080e-02	5.1335e-01	-1.4295e-01	-1.6961e-01	4.8874e+02
181	3.3057e-02	5.2465e-01	-1.3550e-01	-1.7749e-01	3.7538e+02
182	3.2187e-02	5.3522e-01	-1.2140e-01	-1.7862e-01	2.8109e+02
183	3.0873e-02	5.4447e-01	-1.0871e-01	-1.8505e-01	2.0507e+02
184	2.9299e-02	5.5301e-01	-1.2278e-01	-2.1506e-01	2.0746e+02
185	2.9586e-02	5.6220e-01	-1.2895e-01	-2.4414e-01	1.4372e+02
186	3.2929e-02	5.7234e-01	-5.4474e-02	-2.4420e-01	1.0448e+02
187	3.4852e-02	5.8534e-01	-2.0751e-02	-2.2227e-01	3.3340e+01
188	3.6376e-02	5.9449e-01	1.0979e-02	-2.3008e-01	1.0198e+02
189	3.0605e-02	6.1507e-01	-6.3737e-02	-5.5521e-02	6.6781e+02
190	1.7338e-02	6.2261e-01	-1.6422e-01	-2.1542e-01	-2.7069e+02
191	1.9570e-02	6.1305e-01	-1.0121e-01	-1.9754e-01	2.6622e+01
192	2.1243e-02	8.8851e-03	-9.9132e-02	-1.1611e-02	1.5143e+04
193	3.1709e-02	1.7204e-03	-1.8765e-01	3.0733e-01	1.4135e+04
194	3.9703e-02	2.0013e-02	-3.8481e-02	-1.9184e-01	1.4063e+04
195	3.7680e-02	3.4110e-02	-4.3261e-02	-1.8585e-02	1.3304e+04
196	3.8505e-02	4.7888e-02	-1.5385e-01	1.3037e-01	1.2845e+04
197	3.5350e-02	5.3438e-02	-1.8425e-01	-1.0292e-01	1.3169e+04
198	3.5060e-02	6.2462e-02	6.4571e-02	-1.6997e-01	1.2747e+04
199	3.8340e-02	7.4349e-02	2.0273e-01	2.3308e-02	1.2844e+04
200	3.9289e-02	8.6521e-02	3.7105e-03	-2.5196e-02	1.2472e+04
201	3.5827e-02	9.2953e-02	2.6856e-02	1.0231e-01	1.2752e+04
202	3.5466e-02	1.0384e-01	1.3643e-01	-3.0796e-03	1.2853e+04
203	3.9439e-02	1.1198e-01	4.0473e-02	1.4358e-02	1.2747e+04
204	3.9899e-02	1.2164e-01	9.5514e-02	-3.9502e-02	1.2935e+04
205	3.8747e-02	1.3046e-01	1.0323e-01	-1.0637e-01	1.2594e+04
206	3.9869e-02	1.4056e-01	1.0307e-01	-5.9333e-02	1.2135e+04
207	4.0476e-02	1.5124e-01	1.5964e-01	-1.1072e-01	1.1446e+04
208	3.9692e-02	1.6262e-01	-9.1303e-03	3.2397e-02	1.1486e+04
209	3.8152e-02	1.7285e-01	-2.8574e-01	-5.6668e-02	1.1428e+04
210	3.8181e-02	1.8255e-01	-2.6662e-01	1.1022e-01	1.1051e+04
211	3.8511e-02	1.9298e-01	-2.8302e-01	7.1808e-02	1.1362e+04
212	3.7200e-02	2.0126e-01	-3.3433e-01	-1.1756e-01	1.1312e+04
213	3.6233e-02	2.0940e-01	-2.7916e-01	-1.1041e-01	1.1717e+04
214	3.6425e-02	2.1813e-01	-3.4318e-01	-6.4842e-02	1.2481e+04
215	3.7456e-02	2.2669e-01	-4.1173e-01	-1.0627e-01	1.2735e+04
216	3.8547e-02	2.3652e-01	-2.8168e-01	-1.3258e-01	1.2370e+04
217	3.8537e-02	2.4648e-01	-1.2029e-01	-1.9495e-01	1.1476e+04
218	3.8507e-02	2.5597e-01	-1.0639e-01	-1.5264e-01	1.0594e+04
219	3.9558e-02	2.6569e-01	-1.5549e-01	-1.2710e-01	9.9498e+03
220	4.0500e-02	2.7570e-01	-1.6801e-01	-1.2593e-01	9.2148e+03
221	4.1069e-02	2.8586e-01	-1.1122e-01	-9.8558e-02	8.2869e+03
222	4.1471e-02	2.9615e-01	7.6724e-03	-8.9880e-02	7.3325e+03
223	4.1071e-02	3.0676e-01	9.5534e-02	-6.9795e-02	6.3828e+03
224	3.9437e-02	3.1725e-01	4.1845e-02	-2.1389e-02	5.6399e+03
225	3.7948e-02	3.2695e-01	-8.3656e-02	1.0032e-02	5.1503e+03
226	3.7964e-02	3.3597e-01	-1.1345e-01	2.8444e-04	4.6496e+03
227	3.8639e-02	3.4486e-01	-1.2285e-01	-2.0253e-02	4.3291e+03
228	3.9318e-02	3.5396e-01	-1.5745e-01	-4.2386e-02	4.1068e+03
229	4.0096e-02	3.6349e-01	-1.6521e-01	-6.2591e-02	3.8680e+03
230	4.0842e-02	3.7345e-01	-1.3664e-01	-6.6773e-02	3.6604e+03
231	4.1277e-02	3.8358e-01	-1.0872e-01	-6.3244e-02	3.4646e+03
232	4.1339e-02	3.9364e-01	-9.3135e-02	-6.3326e-02	3.2616e+03
233	4.1084e-02	4.0354e-01	-8.4044e-02	-7.0012e-02	3.0022e+03
234	4.0629e-02	4.1333e-01	-8.6944e-02	-5.3018e-02	2.7383e+03
235	4.0500e-02	4.2273e-01	-6.9957e-02	-2.8165e-02	2.5079e+03
236	4.0834e-02	4.3187e-01	1.7369e-02	-4.3967e-02	2.1816e+03
237	4.0186e-02	4.4160e-01	7.1736e-02	-5.2855e-02	1.5401e+03
238	3.8523e-02	4.5175e-01	-4.2267e-02	-1.0603e-02	1.1898e+03
239	3.8476e-02	4.6129e-01	-1.4381e-01	-1.4128e-02	1.1656e+03
240	4.0074e-02	4.7070e-01	-1.3334e-01	-5.9165e-02	9.9221e+02
241	4.2031e-02	4.8062e-01	-1.1503e-01	-9.3758e-02	8.9025e+02
242	4.3569e-02	4.9097e-01	-1.3240e-01	-1.1913e-01	7.6098e+02
243	4.4610e-02	5.0148e-01	-1.5339e-01	-1.4123e-01	6.3078e+02
244	4.5200e-02	5.1199e-01	-1.5476e-01	-1.6600e-01	5.0843e+02
245	4.5209e-02	5.2252e-01	-1.4332e-01	-1.8291e-01	3.7753e+02
246	4.4749e-02	5.3273e-01	-1.3523e-01	-1.8583e-01	3.1185e+02
247	4.4541e-02	5.4234e-01	-1.3261e-01	-1.9643e-01	2.4978e+02
248	4.4905e-02	5.5173e-01	-1.2471e-01	-2.0434e-01	2.1205e+02
249	4.5020e-02	5.6111e-01	-9.9896e-02	-2.2054e-01	2.2125e+02
250	4.4967e-02	5.7085e-01	-7.1347e-02	-2.4452e-01	1.6601e+02
251	4.4471e-02	5.8319e-01	-3.1033e-02	-2.2266e-01	1.3146e+02
252	4.3211e-02	5.9608e-01	-3.4502e-02	-2.0584e-01	2.4198e+01
253	4.2889e-02	6.0945e-01	-3.2313e-02	-1.3460e-01	8.4304e+01
254	3.2719e-02	6.1972e-01	-1.6161e-01	-2.4147e-01	0.0000e+00
255	3.2839e-02	6.1591e-01	-1.5345e-01	-2.3661e-01	0.0000e+00
256	3.9936e-02	7.6825e-03	-1.1000e-01	1.7495e-01	1.4247e+04
257	3.7259e-02	1.7786e-02	-2.1661e-01	-2.1234e-01	1.4433e+04
258	4.8969e-02	2.6126e-02	1.2032e-01	2.1606e-01	1.3229e+04
259	4.6664e-02	3.7298e-02	-2.4842e-02	-1.3548e-01	1.2843e+04
260	4.7428e-02	4.4355e-02	6.2502e-02	-5.7569e-02	1.2186e+04
261	4.8249e-02	5.3108e-02	-5.5907e-03	-1.1340e-01	1.1464e+04
262	4.4986e-02	6.4859e-02	-2.5070e-01	6.4477e-02	1.2019e+04
263	5.0244e-02	7.2843e-02	-1.0486e-01	-2.6668e-02	1.2017e+04
264	5.0499e-02	8.7170e-02	3.8247e-02	7.1162e-02	1.1045e+04
265	4.2885e-02	8.6045e-02	-2.6443e-01	-1.4175e-01	1.2002e+04
266	4.5242e-02	1.0146e-01	-3.3048e-01	-1.7380e-01	1.1827e+04
267	4.7361e-02	1.0842e-01	-2.4285e-01	-1.0164e-01	1.1449e+04
268	4.8367e-02	1.2151e-01	-2.0240e-01	-2.9558e-02	1.1679e+04
269	5.0236e-02	1.3183e-01	-1.5207e-01	-3.4514e-02	1.0990e+04
270	4.8829e-02	1.4099e-01	-1.6429e-01	7.7196e-02	1.1292e+04
271	5.0365e-02	1.5108e-01	-1.0527e-01	-8.0338e-02	1.0854e+04
272	5.0961e-02	1.6184e-01	2.8829e-02	4.7488e-02	1.0802e+04
273	5.0304e-02	1.7166e-01	1.4148e-01	-1.2065e-01	1.0424e+04
274	4.9123e-02	1.8118e-01	1.3482e-01	8.7310e-03	9.8392e+03
275	4.7729e-02	1.9117e-01	4.5399e-02	-3.9850e-02	1.0207e+04
276	4.7569e-02	1.9979e-01	2.2581e-03	-1.2374e-01	9.7282e+03
277	4.6775e-02	2.0886e-01	-3.8477e-03	-6.6866e-02	8.9854e+03
278	4.6495e-02	2.1860e-01	-3.1926e-02	-1.4909e-01	8.8346e+03
279	4.6141e-02	2.2751e-01	-1.4758e-01	-1.3365e-01	8.9577e+03
280	4.6503e-02	2.3741e-01	-2.0347e-01	-5.9988e-02	8.9270e+03
281	4.7464e-02	2.4680e-01	-1.7318e-01	-1.1662e-01	8.4245e+03
282	4.7979e-02	2.5619e-01	-1.3270e-01	-1.2290e-01	7.8980e+03
283	4.8311e-02	2.6583e-01	-9.0819e-02	-1.3338e-01	7.6004e+03
284	4.8724e-02	2.7559e-01	-4.9254e-02	-1.2109e-01	7.2820e+03
285	4.9252e-02	2.8569e-01	-1.9545e-02	-6.6328e-02	6.9337e+03
286	4.9846e-02	2.9575e-01	-1.1863e-02	-3.2121e-02	6.6824e+03
287	5.0377e-02	3.0567e-01	-5.3679e-03	-1.3182e-02	6.4005e+03
288	5.0639e-02	3.1545e-01	1.0999e-02	-1.4843e-02	6.0902e+03
289	5.0558e-02	3.2494e-01	3.0941e-02	-4.9184e-02	5.7690e+03
290	5.0295e-02	3.3424e-01	4.6874e-02	-9.9308e-02	5.3417e+03
291	5.0097e-02	3.4364e-01	5.5963e-02	-1.3456e-01	4.7446e+03
292	5.0116e-02	3.5337e-01	5.3395e-02	-1.4134e-01	4.0467e+03
293	5.0278e-02	3.6340e-01	3.3851e-02	-1.2908e-01	3.3940e+03
294	5.0392e-02	3.7355e-01	1.5043e-03	-1.0847e-01	2.8891e+03
295	5.0374e-02	3.8370e-01	-3.3799e-02	-8.5412e-02	2.5465e+03
296	5.0308e-02	3.9377e-01	-5.8982e-02	-5.9694e-02	2.3263e+03
297	5.0307e-02	4.0366e-01	-6.1111e-02	-4.3589e-02	2.1271e+03
298	5.0293e-02	4.1354e-01	-5.3913e-02	-3.4831e-02	1.9656e+03
299	5.0279e-02	4.2353e-01	-7.8710e-02	1.9624e-03	2.0309e+03
300	5.0572e-02	4.3330e-01	-1.3275e-01	4.3935e-02	2.2000e+03
301	5.1145e-02	4.4266e-01	-1.7345e-01	3.6932e-02	2.1679e+03
302	5.1746e-02	4.5183e-01	-1.7398e-01	-1.3747e-02	1.9546e+03
303	5.2259e-02	4.6112e-01	-1.4452e-01	-7.2712e-02	1.6859e+03
304	5.2626e-02	4.7075e-01	-1.1361e-01	-1.1857e-01	1.4287e+03
305	5.2789e-02	4.8078e-01	-9.4352e-02	-1.4480e-01	1.1891e+03
306	5.2720e-02	4.9111e-01	-8.9471e-02	-1.5704e-01	9.4278e+02
307	5.2479e-02	5.0160e-01	-9.6734e-02	-1.6059e-01	7.4494e+02
308	5.2197e-02	5.1202e-01	-1.0325e-01	-1.6815e-01	5.9550e+02
309	5.1950e-02	5.2236e-01	-9.9065e-02	-1.7673e-01	4.5329e+02
310	5.1735e-02	5.3249e-01	-8.6467e-02	-1.8258e-01	3.7023e+02
311	5.1444e-02	5.4271e-01	-8.2783e-02	-1.9918e-01	2.7998e+02
312	5.1270e-02	5.5274e-01	-8.9474e-02	-1.9353e-01	2.3870e+02
313	5.1517e-02	5.6243e-01	-8.4329e-02	-2.0101e-01	2.4635e+02
314	5.2953e-02	5.7298e-01	-6.6171e-02	-2.1236e-01	1.9142e+02
315	5.4744e-02	5.8258e-01	-3.6693e-02	-1.9621e-01	2.4150e+02
316	5.4054e-02	5.9475e-01	-3.0608e-02	-2.1385e-01	1.8002e+02
317	5.3423e-02	6.0549e-01	-3.0747e-02	-1.7332e-01	1.2245e+02
318	4.9217e-02	6.1927e-01	-4.5255e-02	-2.1233e-01	4.0518e+01
319	4.8588e-02	6.1790e-01	-6.6433e-02	-2.1488e-01	4.8714e+01
320	5.0988e-02	2.1849e-03	-1.5335e-01	-4.9226e-02	1.3597e+04
321	5.5454e-02	9.4133e-03	-1.7636e-01	-1.1541e-01	1.3279e+04
322	5.4898e-02	1.7153e-02	7.7288e-02	-1.6718e-01	1.3056e+04
323	6.1276e-02	3.6285e-02	-7.8536e-03	-6.8893e-02	1.2626e+04
324	6.0058e-02	4.4146e-02	-6.8756e-02	-3.1494e-03	1.2019e+04
325	5.9717e-02	5.5229e-02	1.5491e-02	-6.8802e-02	1.1412e+04
326	5.6769e-02	6.3953e-02	6.5537e-02	-4.3467e-02	1.1610e+04
327	5.4490e-02	7.1723e-02	-3.1410e-02	-6.8159e-02	1.1884e+04
328	5.9921e-02	8.4917e-02	1.8456e-01	-4.1453e-02	1.1289e+04
329	6.0291e-02	9.4406e-02	1.3321e-01	1.1310e-01	1.1230e+04
330	5.6547e-02	1.0068e-01	-4.9297e-03	-1.9230e-01	1.0727e+04
331	5.7968e-02	1.1018e-01	1.1070e-01	3.9387e-02	1.0918e+04
332	5.8920e-02	1.2083e-01	9.7617e-02	-1.2236e-01	1.1184e+04
333	5.8789e-02	1.2749e-01	1.1101e-01	-2.0293e-01	1.0729e+04
334	5.9655e-02	1.4017e-01	1.5448e-01	4.6796e-02	1.0718e+04
335	5.9849e-02	1.4883e-01	1.0714e-02	-2.2943e-01	1.0404e+04
336	5.9678e-02	1.5858e-01	-3.4777e-02	7.6455e-02	1.0504e+04
337	6.0576e-02	1.7032e-01	-6.7882e-02	-1.4455e-01	1.1008e+04
338	6.0479e-02	1.7913e-01	-9.6170e-02	-3.7964e-02	1.0569e+04
339	6.0118e-02	1.9031e-01	-7.1346e-02	-4.2515e-02	1.0861e+04
340	5.9571e-02	1.9991e-01	-4.9931e-02	-1.2472e-01	1.0479e+04
341	5.9199e-02	2.0993e-01	-4.2900e-02	-1.1527e-03	1.0238e+04
342	5.8722e-02	2.1961e-01	2.4816e-02	-1.3015e-01	1.0161e+04
343	5.8745e-02	2.2875e-01	9.7600e-02	-1.1937e-01	9.5348e+03
344	5.8876e-02	2.3835e-01	1.2830e-01	-1.0183e-01	9.0945e+03
345	5.8958e-02	2.4761e-01	1.2281e-01	-1.3309e-01	8.7284e+03
346	5.9460e-02	2.5685e-01	1.1360e-01	-1.0857e-01	8.3012e+03
347	6.0121e-02	2.6637e-01	1.0559e-01	-1.1272e-01	7.9314e+03
348	6.0746e-02	2.7589e-01	9.3962e-02	-1.2075e-01	7.4879e+03
349	6.1150e-02	2.8558e-01	7.4614e-02	-1.1745e-01	7.0022e+03
350	6.1298e-02	2.9533e-01	4.2646e-02	-1.1726e-01	6.5567e+03
351	6.1237e-02	3.0509e-01	-8.0246e-03	-1.0311e-01	6.1118e+03
352	6.1017e-02	3.1483e-01	-7.6756e-02	-8.7420e-02	5.7222e+03
353	6.0792e-02	3.2446e-01	-1.4059e-01	-7.6122e-02	5.4269e+03
354	6.0769e-02	3.3407e-01	-1.6744e-01	-6.5375e-02	5.1960e+03
355	6.0978e-02	3.4376e-01	-1.5114e-01	-6.3103e-02	4.9722e+03
356	6.1265e-02	3.5359e-01	-1.0576e-01	-7.3644e-02	4.7052e+03
357	6.1503e-02	3.6358e-01	-4.4922e-02	-8.5060e-02	4.3639e+03
358	6.1652e-02	3.7368e-01	1.4076e-02	-8.6414e-02	3.9528e+03
359	6.1710e-02	3.8380e-01	5.4804e-02	-8.0831e-02	3.5035e+03
360	6.1683e-02	3.9388e-01	6.6993e-02	-6.9742e-02	3.0721e+03
361	6.1606e-02	4.0383e-01	5.2402e-02	-5.5242e-02	2.7216e+03
362	6.1527e-02	4.1357e-01	3.2114e-02	-5.3063e-02	2.4169e+03
363	6.1383e-02	4.2323e-01	1.4759e-02	-6.1944e-02	2.0933e+03
364	6.1055e-02	4.3292e-01	-2.5330e-02	-6.1208e-02	1.8098e+03
365	6.0668e-02	4.4258e-01	-9.8291e-02	-5.1657e-02	1.6684e+03
366	6.0579e-02	4.5212e-01	-1.6761e-01	-5.1928e-02	1.5811e+03
367	6.0951e-02	4.6166e-01	-2.0229e-01	-6.9688e-02	1.4602e+03
368	6.1631e-02	4.7136e-01	-2.0606e-01	-9.3780e-02	1.3105e+03
369	6.2397e-02	4.8125e-01	-1.9152e-01	-1.1143e-01	1.1381e+03
370	6.3082e-02	4.9133e-01	-1.7084e-01	-1.2696e-01	9.4527e+02
371	6.3583e-02	5.0155e-01	-1.5179e-01	-1.3718e-01	7.7793e+02
372	6.3808e-02	5.1176e-01	-1.3522e-01	-1.5026e-01	6.5723e+02
373	6.3847e-02	5.2209e-01	-1.2628e-01	-1.6288e-01	5.4484e+02
374	6.3971e-02	5.3214e-01	-1.1863e-01	-1.6159e-01	5.0308e+02
375	6.4002e-02	5.4215e-01	-1.0310e-01	-1.8470e-01	4.3582e+02
376	6.3941e-02	5.5240e-01	-8.4943e-02	-1.8356e-01	3.6412e+02
377	6.3760e-02	5.6212e-01	-6.5231e-02	-1.9817e-01	3.5161e+02
378	6.3446e-02	5.7319e-01	-5.3239e-02	-2.1158e-01	2.5349e+02
379	6.2905e-02	5.8247e-01	-4.9925e-02	-1.8926e-01	2.6969e+02
380	6.2260e-02	5.9418e-01	-4.8178e-02	-2.1439e-01	1.9655e+02
381	6.1982e-02	6.0314e-01	-3.7141e-02	-1.8241e-01	1.5339e+02
382	5.9319e-02	6.1937e-01	-3.8772e-02	-2.1022e-01	3.6536e+01
383	6.0244e-02	6.1612e-01	-4.0495e-02	-2.0541e-01	6.0226e+01
384	6.6203e-02	6.9769e-03	1.5201e-02	2.3082e-02	1.3342e+04
385	6.6728e-02	1.5370e-02	5.3090e-02	1.3724e-02	1.3235e+04
386	6.6228e-02	2.8453e-02	-1.0517e-02	6.8689e-02	1.2796e+04
387	5.7539e-02	2.6574e-02	-3.4747e-01	-1.8793e-01	1.2915e+04
388	6.7363e-02	4.4696e-02	-5.2374e-02	-7.2848e-02	1.1602e+04
389	6.7882e-02	5.4340e-02	-4.4179e-02	3.5637e-02	1.1289e+04
390	6.8739e-02	6.6526e-02	-1.5960e-01	3.2509e-02	1.1430e+04
391	6.7332e-02	7.3355e-02	-2.4647e-01	-5.4223e-02	1.1462e+04
392	6.7214e-02	8.3999e-02	-1.2108e-01	-4.8240e-02	1.1302e+04
393	7.1750e-02	9.3144e-02	-7.9641e-02	-7.8954e-03	1.1061e+04
394	7.0351e-02	1.0225e-01	-9.2218e-02	-7.9340e-02	1.1056e+04
395	6.7572e-02	1.0847e-01	-1.3687e-01	-2.4270e-02	1.1321e+04
396	6.9334e-02	1.2028e-01	-1.5334e-01	-1.1842e-01	1.1469e+04
397	6.9530e-02	1.2990e-01	-8.2771e-02	-1.5742e-02	1.1066e+04
398	7.0927e-02	1.4032e-01	-1.0578e-01	-6.7056e-02	1.0988e+04
399	6.9253e-02	1.4885e-01	-5.1935e-02	-2.3019e-01	1.0347e+04
400	6.9068e-02	1.5940e-01	-7.7371e-03	5.6524e-02	1.0257e+04
401	6.9263e-02	1.7030e-01	-6.2242e-02	-2.2162e-01	1.0350e+04
402	6.7758e-02	1.7994e-01	-1.1464e-01	6.7364e-03	9.9275e+03
403	6.8045e-02	1.9134e-01	-1.2526e-01	-4.5240e-02	1.0136e+04
404	6.7537e-02	2.0027e-01	-1.9356e-01	-1.0385e-01	9.7367e+03
405	6.7739e-02	2.1022e-01	-1.9845e-01	2.4810e-02	9.7233e+03
406	6.8042e-02	2.1960e-01	-2.3547e-01	-8.0364e-02	1.0012e+04
407	6.8291e-02	2.2821e-01	-2.4051e-01	-6.6944e-02	9.8167e+03
408	6.8852e-02	2.3758e-01	-2.0460e-01	-6.8844e-02	9.7168e+03
409	6.9280e-02	2.4662e-01	-1.7077e-01	-1.3326e-01	9.5568e+03
410	6.9581e-02	2.5594e-01	-1.3060e-01	-1.2316e-01	9.1599e+03
411	6.9774e-02	2.6552e-01	-1.0348e-01	-1.3995e-01	8.7548e+03
412	6.9890e-02	2.7512e-01	-8.1064e-02	-1.4320e-01	8.2382e+03
413	7.0051e-02	2.8496e-01	-4.4177e-02	-1.2730e-01	7.6834e+03
414	7.0227e-02	2.9494e-01	6.7437e-03	-1.2229e-01	7.1726e+03
415	7.0276e-02	3.0507e-01	6.1975e-02	-1.1039e-01	6.6102e+03
416	7.0104e-02	3.1529e-01	9.9109e-02	-9.9299e-02	5.9842e+03
417	6.9799e-02	3.2546e-01	9.6859e-02	-8.6470e-02	5.3472e+03
418	6.9574e-02	3.3548e-01	5.4053e-02	-6.9810e-02	4.8465e+03
419	6.9539e-02	3.4529e-01	-1.0608e-02	-5.8591e-02	4.5333e+03
420	6.9677e-02	3.5493e-01	-7.2427e-02	-5.4761e-02	4.3054e+03
421	6.9942e-02	3.6453e-01	-1.1621e-01	-5.5143e-02	4.0816e+03
422	7.0263e-02	3.7415e-01	-1.4086e-01	-5.7737e-02	3.8485e+03
423	7.0575e-02	3.8382e-01	-1.4843e-01	-6.2696e-02	3.5962e+03
424	7.0817e-02	3.9353e-01	-1.4120e-01	-6.9298e-02	3.3106e+03
425	7.0945e-02	4.0331e-01	-1.2999e-01	-6.9849e-02	3.0130e+03
426	7.1041e-02	4.1308e-01	-1.2275e-01	-6.0787e-02	2.7298e+03
427	7.1268e-02	4.2278e-01	-1.0910e-01	-5.3469e-02	2.4354e+03
428	7.1621e-02	4.3244e-01	-8.1746e-02	-5.7051e-02	2.1117e+03
429	7.1922e-02	4.4215e-01	-5.2338e-02	-6.8619e-02	1.7912e+03
430	7.2062e-02	4.5192e-01	-3.5674e-02	-8.3291e-02	1.5219e+03
431	7.2087e-02	4.6175e-01	-3.4493e-02	-1.0058e-01	1.3149e+03
432	7.2097e-02	4.7167e-01	-4.2712e-02	-1.1477e-01	1.1489e+03
433	7.2148e-02	4.8167e-01	-5.4902e-02	-1.2252e-01	1.0167e+03
434	7.2231e-02	4.9176e-01	-6.8491e-02	-1.3311e-01	8.8822e+02
435	7.2321e-02	5.0192e-01	-8.0915e-02	-1.3825e-01	7.7644e+02
436	7.2398e-02	5.1197e-01	-8.6428e-02	-1.4750e-01	6.9127e+02
437	7.2413e-02	5.2214e-01	-8.6016e-02	-1.6342e-01	5.8155e+02
438	7.2397e-02	5.3219e-01	-8.5978e-02	-1.6065e-01	5.2891e+02
439	7.2401e-02	5.4223e-01	-8.5856e-02	-1.7967e-01	4.6402e+02
440	7.2520e-02	5.5248e-01	-8.3564e-02	-1.7309e-01	4.1316e+02
441	7.2760e-02	5.6192e-01	-7.4245e-02	-1.8463e-01	4.1940e+02
442	7.2963e-02	5.7290e-01	-5.7844e-02	-1.9696e-01	3.2838e+02
443	7.2855e-02	5.8200e-01	-4.2262e-02	-1.8038e-01	3.1520e+02
444	7.2428e-02	5.9390e-01	-4.1553e-02	-2.0934e-01	2.1396e+02
445	7.2514e-02	6.0168e-01	-3.2254e-02	-1.7607e-01	1.9233e+02
446	7.0519e-02	6.2033e-01	-2.8240e-02	-1.8743e-01	0.0000e+00
447	7.1220e-02	6.1517e-01	-2.9279e-02	-2.1824e-01	1.7437e+02
448	7.5673e-02	4.0856e-04	-8.1838e-02	2.7849e-01	1.3653e+04
449	7.7143e-02	1.5833e-02	-1.0888e-01	-2.7062e-02	1.3356e+04
450	7.7906e-02	2.6022e-02	-1.4898e-01	6.5246e-03	1.2551e+04
451	7.6138e-02	3.1829e-02	-1.1076e-01	-3.4277e-02	1.2238e+04
452	7.7768e-02	4.4926e-02	-3.4398e-02	-4.0931e-02	1.1227e+04
453	7.8773e-02	5.3711e-02	3.2345e-02	3.4248e-02	1.1192e+04
454	7.8604e-02	6.4812e-02	-1.3718e-03	-1.1781e-01	1.1009e+04
455	7.7425e-02	7.1490e-02	-1.6925e-02	-4.0482e-02	1.0859e+04
456	7.7894e-02	8.3060e-02	3.8400e-02	-6.9834e-02	1.0776e+04
457	8.0644e-02	9.1145e-02	6.1384e-02	-4.6786e-02	1.0646e+04
458	8.2391e-02	1.0358e-01	1.4678e-01	-6.6140e-02	1.0467e+04
459	7.7694e-02	1.1182e-01	-1.6929e-02	2.2603e-02	1.0607e+04
460	7.7913e-02	1.2146e-01	-3.8251e-02	-1.0319e-01	1.0656e+04
461	7.9682e-02	1.3117e-01	2.2798e-03	-1.8307e-02	1.0474e+04
462	7.9246e-02	1.4216e-01	-2.2558e-02	-3.6603e-02	1.0556e+04
463	8.0215e-02	1.5187e-01	3.8551e-02	-3.5395e-02	1.0138e+04
464	7.9464e-02	1.6200e-01	-1.8560e-02	3.2514e-02	1.0443e+04
465	7.9340e-02	1.7137e-01	1.9186e-02	-1.2868e-01	1.0214e+04
466	7.9699e-02	1.8089e-01	5.8478e-02	4.9519e-02	9.9809e+03
467	7.9465e-02	1.9104e-01	3.2758e-02	-8.6668e-02	1.0219e+04
468	7.9347e-02	1.9951e-01	6.4686e-02	-1.1512e-01	9.7228e+03
469	7.9227e-02	2.0911e-01	8.8545e-02	-4.4464e-02	9.4441e+03
470	7.9434e-02	2.1855e-01	7.1666e-02	-1.6386e-01	9.2957e+03
471	7.9360e-02	2.2745e-01	6.1367e-02	-1.2321e-01	8.8050e+03
472	7.9501e-02	2.3725e-01	3.7540e-02	-1.1143e-01	8.6201e+03
473	7.9761e-02	2.4652e-01	4.3299e-03	-1.4738e-01	8.3881e+03
474	7.9920e-02	2.5613e-01	-1.5561e-02	-1.0982e-01	8.0283e+03
475	8.0203e-02	2.6590e-01	-2.4334e-02	-1.1976e-01	7.7630e+03
476	8.0468e-02	2.7566e-01	-3.0756e-02	-1.1251e-01	7.4193e+03
477	8.0694e-02	2.8568e-01	-4.1282e-02	-9.3087e-02	7.1293e+03
478	8.0905e-02	2.9570e-01	-6.1426e-02	-8.2449e-02	6.9329e+03
479	8.1091e-02	3.0573e-01	-8.3447e-02	-6.1736e-02	6.7415e+03
480	8.1255e-02	3.1568e-01	-9.4679e-02	-5.2537e-02	6.5366e+03
481	8.1379e-02	3.2549e-01	-8.4687e-02	-5.8652e-02	6.2278e+03
482	8.1453e-02	3.3519e-01	-5.1411e-02	-7.2367e-02	5.7905e+03
483	8.1466e-02	3.4483e-01	-6.9365e-03	-8.6875e-02	5.2697e+03
484	8.1422e-02	3.5447e-01	3.1152e-02	-9.5301e-02	4.7182e+03
485	8.1342e-02	3.6415e-01	5.1921e-02	-9.8008e-02	4.1964e+03
486	8.1263e-02	3.7388e-01	5.4233e-02	-9.6645e-02	3.7442e+03
487	8.1220e-02	3.8364e-01	4.3333e-02	-9.0418e-02	3.3696e+03
488	8.1241e-02	3.9342e-01	2.7877e-02	-8.2807e-02	3.0522e+03
489	8.1303e-02	4.0320e-01	1.3475e-02	-7.8767e-02	2.7611e+03
490	8.1347e-02	4.1302e-01	-4.5650e-03	-7.6437e-02	2.4963e+03
491	8.1356e-02	4.2286e-01	-3.4520e-02	-7.1926e-02	2.2837e+03
492	8.1386e-02	4.3270e-01	-7.4396e-02	-6.8165e-02	2.1172e+03
493	8.1494e-02	4.4250e-01	-1.1278e-01	-7.0342e-02	1.9584e+03
494	8.1701e-02	4.5229e-01	-1.3941e-01	-7.8094e-02	1.7909e+03
495	8.1994e-02	4.6208e-01	-1.5011e-01	-9.0580e-02	1.6091e+03
496	8.2328e-02	4.7192e-01	-1.4802e-01	-1.0420e-01	1.4167e+03