variables="k","x","y","vx","vy","pressure"
zone i=8064 j=1
0	9.8778e-03	1.3536e-02	-1.2808e-01	1.4421e-02	3.9753e+03
1	4.5769e-03	4.4336e-02	-7.3393e-02	2.2190e-01	3.6225e+03
2	5.8969e-03	3.1058e-02	-1.3835e-01	-1.1326e-01	3.6951e+03
3	1.9991e-02	4.5127e-02	5.6375e-02	-2.5000e-01	3.4777e+03
4	8.6792e-03	7.3302e-02	1.0827e-01	2.7918e-01	3.3033e+03
5	1.1305e-02	6.3702e-02	-1.0561e-02	-1.0071e-01	3.4606e+03
6	3.4546e-03	8.0319e-02	3.7936e-02	-3.1262e-03	3.6111e+03
7	3.0181e-02	9.1616e-02	1.6391e-01	-1.8039e-01	3.2239e+03
8	3.6071e-04	9.6856e-02	-5.4915e-02	1.2845e-02	3.1887e+03
9	1.9363e-02	1.2782e-01	5.5998e-02	4.3708e-02	3.0801e+03
10	1.1092e-02	1.3671e-01	2.2239e-01	1.4077e-01	3.0779e+03
11	3.6047e-03	1.5143e-01	-5.9012e-02	1.0140e-01	3.1998e+03
12	6.7503e-03	1.5323e-01	7.6844e-02	1.7557e-02	3.1583e+03
13	9.6104e-03	1.6818e-01	3.6118e-02	2.4149e-01	2.6302e+03
14	8.6613e-03	1.6707e-01	3.7036e-03	-5.3793e-02	2.5121e+03
15	3.1756e-03	1.7860e-01	-1.9058e-01	1.0827e-01	2.2687e+03
16	1.2304e-03	1.9282e-01	2.0585e-01	2.7721e-01	1.8283e+03
17	1.5677e-03	2.0606e-01	-2.3718e-01	2.7636e-01	2.0597e+03
18	1.4714e-02	2.0245e-01	3.1508e-02	-7.3615e-02	2.3577e+03
19	1.4175e-02	2.0495e-01	9.3941e-02	-1.5544e-01	2.4310e+03
20	7.0307e-03	2.3653e-01	-1.5339e-01	3.5881e-01	1.5980e+03
21	2.7622e-02	2.4327e-01	3.9386e-02	1.0349e-01	2.0118e+03
22	1.0036e-02	2.5879e-01	6.0551e-01	1.5458e-01	2.0494e+03
23	1.6754e-02	2.7743e-01	3.2133e-01	3.8587e-01	1.9678e+03
24	1.8200e-02	2.8461e-01	1.6950e-01	2.3579e-01	2.3643e+03
25	2.1799e-03	2.8113e-01	-2.1675e-01	-1.3060e-01	2.4873e+03
26	3.8992e-04	2.8862e-01	-2.5401e-01	6.5784e-02	2.0275e+03
27	3.4375e-03	3.0276e-01	1.2309e-01	4.2710e-02	2.8769e+03
28	5.5425e-03	3.2154e-01	-4.9591e-02	2.8836e-01	2.6686e+03
29	8.1901e-03	3.1758e-01	1.1244e-01	-1.0907e-01	2.4795e+03
30	-7.8154e-05	3.3461e-01	3.7269e-01	6.5886e-02	2.8007e+03
31	2.0872e-03	3.4714e-01	-1.0992e-01	2.9108e-01	2.4478e+03
32	7.7538e-03	3.6827e-01	2.9769e-01	4.2307e-01	2.4222e+03
33	5.8639e-03	3.7661e-01	-6.0691e-02	2.0047e-01	2.3725e+03
34	1.5936e-02	3.7713e-01	6.9401e-02	1.2906e-01	2.6396e+03
35	4.4188e-03	3.8665e-01	2.8470e-01	2.5475e-01	2.1249e+03
36	8.2455e-03	3.9966e-01	6.1447e-02	3.4237e-01	2.1792e+03
37	1.2049e-02	4.0158e-01	1.1592e-01	1.8970e-01	2.4973e+03
38	3.5647e-03	4.1099e-01	-3.2715e-02	1.5248e-01	2.2106e+03
39	2.8037e-03	4.2164e-01	-4.1555e-02	2.0368e-01	1.5951e+03
40	7.8061e-03	4.2835e-01	9.7807e-02	1.6881e-01	1.4467e+03
41	5.8521e-04	4.3894e-01	-1.8125e-01	2.1807e-01	1.2086e+03
42	1.0570e-03	4.5310e-01	1.4225e-02	1.7506e-01	1.1672e+03
43	5.9939e-03	4.6393e-01	2.1483e-01	2.7835e-01	1.3103e+03
44	1.3658e-02	4.7767e-01	1.6396e-01	3.6725e-01	6.7559e+02
45	1.5050e-02	4.8954e-01	-1.7576e-01	4.1282e-01	7.9313e+02
46	1.9395e-02	4.8878e-01	-1.2337e-01	8.7621e-02	2.1657e+02
47	1.6049e-02	4.9602e-01	-2.5655e-01	1.3857e-02	3.2427e+02
48	1.9369e-02	5.0783e-01	-1.0115e-01	2.9090e-01	2.3641e+02
49	2.1117e-02	5.1744e-01	-1.1967e-01	3.1887e-01	3.7567e+02
50	2.3228e-02	5.2443e-01	2.3822e-02	5.2643e-02	6.2170e+02
51	2.2914e-02	5.3838e-01	6.1396e-02	1.9878e-01	7.1807e+02
52	1.4385e-02	5.4991e-01	1.3009e-01	8.0917e-02	2.6568e+02
53	1.5870e-02	5.7667e-01	1.2642e-01	2.8686e-01	-4.0083e+02
54	1.6961e-02	5.8777e-01	2.8677e-01	4.8502e-01	-2.4991e+02
55	6.7756e-03	5.7479e-01	5.9450e-02	4.3233e-02	6.7547e+02
56	1.6128e-02	5.9739e-01	2.8047e-01	7.5883e-01	1.8395e+01
57	5.7331e-03	6.0236e-01	-6.0148e-02	3.2991e-01	-3.5367e+02
58	6.5223e-03	6.1537e-01	-1.8941e-01	3.4340e-01	6.6893e+02
59	2.5167e-02	5.9334e-01	2.6402e-01	-4.3508e-01	1.7275e+02
60	1.7773e-03	6.5841e-01	-2.0167e-02	-1.0660e-01	0.0000e+00
61	1.2377e-02	6.8515e-01	1.4434e-01	8.8412e-02	0.0000e+00
62	5.6579e-03	6.5148e-01	5.1354e-02	-3.8599e-02	0.0000e+00
63	3.1449e-03	6.2859e-01	-6.2847e-03	3.3910e-01	0.0000e+00
64	7.4120e-03	1.4904e-03	8.6398e-02	-5.2135e-02	4.3601e+03
65	3.8988e-03	1.7779e-02	-1.1433e-02	-3.9323e-02	4.2079e+03
66	2.2619e-02	2.9024e-02	-8.5042e-02	4.5831e-02	3.9120e+03
67	8.6021e-03	5.0773e-02	-1.2109e-01	2.8506e-01	3.7995e+03
68	5.3090e-03	6.0737e-02	1.8441e-01	2.4199e-01	3.8910e+03
69	2.2584e-02	6.5871e-02	1.4524e-01	-3.8991e-02	3.3770e+03
70	1.8225e-02	7.3229e-02	1.9914e-02	-2.1620e-02	3.2254e+03
71	1.1626e-02	8.7988e-02	-4.9593e-02	1.2300e-01	3.6252e+03
72	1.5645e-02	9.6222e-02	1.5543e-01	-4.3824e-02	3.3228e+03
73	8.2498e-03	1.0349e-01	-1.0188e-01	1.4112e-01	3.2166e+03
74	3.3994e-03	1.2119e-01	-1.9513e-01	2.0513e-02	3.5734e+03
75	1.2262e-02	1.1154e-01	2.4015e-01	-1.8220e-01	3.4169e+03
76	1.6791e-03	1.3310e-01	-2.7458e-01	5.4143e-02	2.9590e+03
77	1.7091e-02	1.3948e-01	-6.1485e-02	1.0007e-01	3.2262e+03
78	2.0286e-02	1.4630e-01	-6.3476e-02	2.6876e-02	3.2435e+03
79	2.0206e-02	1.5897e-01	-6.2640e-02	3.9492e-02	2.6699e+03
80	2.4960e-02	1.5763e-01	3.9558e-02	-1.9175e-01	2.7000e+03
81	2.2859e-02	1.7356e-01	1.6109e-01	-9.5054e-02	2.4503e+03
82	1.9900e-02	1.7798e-01	1.0028e-01	-8.4218e-02	2.4334e+03
83	1.6059e-02	1.8641e-01	-4.8190e-02	-2.7446e-02	2.0757e+03
84	1.5413e-02	1.8571e-01	-9.4689e-02	-2.5816e-01	2.2112e+03
85	6.1346e-03	2.2853e-01	3.1227e-01	2.6759e-01	1.3473e+03
86	4.5422e-03	2.5101e-01	-2.5547e-01	3.0406e-01	1.5325e+03
87	1.9560e-02	2.3580e-01	2.1869e-01	-5.0718e-02	2.0335e+03
88	1.2467e-02	2.4784e-01	-2.8700e-02	-1.2584e-01	1.4714e+03
89	5.7964e-03	2.6903e-01	-2.2980e-01	2.5785e-01	2.2011e+03
90	2.4857e-02	2.7384e-01	9.2078e-02	-2.4107e-03	1.7812e+03
91	2.6179e-02	2.9308e-01	1.6524e-01	2.4658e-01	2.3853e+03
92	1.4516e-02	3.0290e-01	-1.1513e-01	1.5837e-01	2.6722e+03
93	1.4323e-02	3.0403e-01	-1.3178e-01	3.1294e-02	2.6082e+03
94	1.9984e-02	3.0972e-01	7.6667e-02	1.1438e-01	2.3497e+03
95	2.3750e-02	3.1847e-01	1.2876e-01	1.2277e-01	2.3534e+03
96	1.9800e-02	3.2515e-01	-2.3450e-02	-3.0314e-02	2.3979e+03
97	1.8025e-02	3.3509e-01	4.5169e-02	-3.8990e-02	2.6040e+03
98	7.0277e-03	3.5252e-01	-9.4024e-02	2.4003e-01	2.5725e+03
99	9.0773e-03	3.5902e-01	-1.6323e-01	2.6544e-01	2.3096e+03
100	2.0452e-02	3.6178e-01	3.6191e-02	5.5710e-02	2.2121e+03
101	2.5590e-02	3.7443e-01	1.5982e-01	1.7038e-02	2.1789e+03
102	1.7446e-02	3.8707e-01	-1.8615e-01	7.7902e-02	2.3351e+03
103	1.8562e-02	3.9120e-01	-8.2332e-02	-9.1853e-02	2.1289e+03
104	2.2613e-02	4.0688e-01	1.5519e-02	9.4609e-02	2.0665e+03
105	2.2250e-02	4.1599e-01	-4.0380e-02	1.6480e-02	1.9643e+03
106	2.0049e-02	4.2936e-01	2.1997e-02	5.9386e-02	1.7083e+03
107	1.5945e-02	4.4212e-01	-2.1723e-03	1.5505e-01	1.3725e+03
108	1.6297e-02	4.4659e-01	-4.9206e-02	5.5087e-02	1.1432e+03
109	2.0698e-02	4.5035e-01	4.5819e-02	-6.8007e-02	1.0353e+03
110	1.2925e-02	4.6462e-01	-1.9030e-01	7.9571e-02	7.2952e+02
111	3.9489e-03	4.7960e-01	2.5268e-01	3.2727e-02	7.7688e+02
112	1.7488e-03	4.9353e-01	8.3927e-02	1.5490e-01	7.3854e+02
113	1.5444e-02	5.0302e-01	3.8025e-01	2.2040e-01	4.3691e+02
114	1.0851e-02	5.1100e-01	1.7175e-01	3.0639e-01	6.7539e+02
115	3.5831e-03	5.1668e-01	-5.2497e-02	1.8665e-02	7.8776e+01
116	3.5836e-03	5.3086e-01	-1.2289e-02	1.7865e-01	1.6328e+02
117	6.7835e-03	5.3906e-01	2.7767e-02	3.7468e-01	-5.1423e+02
118	2.7397e-03	5.3837e-01	-1.6445e-01	-6.8061e-02	4.8505e+02
119	7.4357e-04	5.6230e-01	-2.7188e-01	3.6679e-01	-9.6879e+02
120	2.4572e-03	5.6789e-01	-1.5681e-01	5.7522e-01	-8.1742e+01
121	1.7640e-02	5.6426e-01	1.4454e-01	5.7422e-02	-4.2151e+02
122	2.8061e-02	5.7043e-01	1.9402e-02	-6.1012e-02	9.6914e+01
123	2.7710e-02	5.8315e-01	-9.2756e-02	-5.7079e-02	-1.1790e+02
124	3.5313e-02	5.9906e-01	1.1893e-01	1.6309e-01	-5.6841e+02
125	1.7866e-02	6.2880e-01	8.6095e-03	-1.4909e-02	0.0000e+00
126	9.2155e-03	6.3578e-01	3.5331e-01	2.7324e-02	0.0000e+00
127	2.2914e-02	6.1847e-01	2.2174e-01	1.8343e-01	3.7191e+02
128	9.3161e-03	3.3460e-02	-8.4776e-02	2.6438e-01	3.6951e+03
129	1.8365e-02	1.9465e-02	2.4086e-02	3.1919e-01	3.8742e+03
130	2.4750e-02	2.3159e-02	-1.4201e-01	-9.0696e-02	3.8941e+03
131	3.1787e-02	3.3405e-02	1.2312e-01	-6.5749e-02	3.4294e+03
132	2.4642e-02	4.0580e-02	-1.5681e-01	-2.9550e-02	3.4599e+03
133	2.1361e-02	5.2337e-02	-6.1807e-02	-2.2643e-02	3.3030e+03
134	3.0889e-02	7.0680e-02	-5.9411e-02	-6.2265e-02	3.2202e+03
135	2.5695e-02	7.8559e-02	8.0134e-02	7.8835e-02	3.1692e+03
136	2.1797e-02	8.7897e-02	-1.3536e-01	4.3081e-02	3.1939e+03
137	2.1699e-02	1.0469e-01	-8.5488e-02	1.0129e-01	3.2337e+03
138	1.0190e-02	1.1779e-01	-2.1014e-01	1.8915e-01	3.2531e+03
139	2.6704e-02	1.1509e-01	-7.0320e-02	6.2841e-02	3.1788e+03
140	2.7960e-02	1.2053e-01	-1.0064e-01	-2.6261e-02	3.1724e+03
141	2.8182e-02	1.3190e-01	1.9519e-02	-1.1121e-01	3.0005e+03
142	2.9418e-02	1.3949e-01	4.0131e-02	-9.0370e-02	2.7754e+03
143	3.4157e-02	1.4923e-01	1.1265e-01	-4.0177e-02	2.6070e+03
144	3.1970e-02	1.5999e-01	5.0523e-02	-8.6255e-02	2.6113e+03
145	3.1882e-02	1.7410e-01	2.5298e-02	-1.3960e-02	2.4501e+03
146	3.7076e-02	1.8815e-01	5.5145e-02	4.1978e-02	2.2402e+03
147	2.4683e-02	2.0376e-01	-1.5751e-02	-2.2951e-02	2.0468e+03
148	7.4528e-03	2.1947e-01	-2.1992e-01	1.7259e-01	1.7650e+03
149	8.8315e-03	2.2239e-01	-1.5161e-01	1.8683e-01	1.6361e+03
150	1.9914e-02	2.3171e-01	-1.0641e-01	2.5152e-01	1.8970e+03
151	2.7126e-02	2.2602e-01	-7.4203e-02	-1.5913e-01	1.6125e+03
152	2.6353e-02	2.4683e-01	-3.3295e-02	9.3411e-02	2.0656e+03
153	1.4331e-02	2.6066e-01	-2.5723e-01	1.9837e-01	1.5990e+03
154	1.8743e-02	2.6066e-01	-1.2127e-01	7.8788e-02	1.8381e+03
155	2.8220e-02	2.6476e-01	2.4116e-02	-3.0102e-02	1.9917e+03
156	3.0364e-02	2.7676e-01	3.2704e-02	-7.2208e-02	2.0394e+03
157	2.4084e-02	2.8971e-01	-2.6966e-01	2.9803e-02	2.3366e+03
158	3.0368e-02	2.9624e-01	6.7860e-03	8.1295e-03	2.3518e+03
159	3.7708e-02	3.0500e-01	1.6267e-01	-1.0380e-01	2.4337e+03
160	3.3351e-02	3.1753e-01	1.0502e-01	-4.7816e-02	2.7441e+03
161	1.6408e-02	3.3162e-01	-3.3335e-01	8.4626e-02	2.5349e+03
162	2.1773e-02	3.4017e-01	-1.2930e-01	1.3398e-01	2.5445e+03
163	2.5219e-02	3.4576e-01	-4.2342e-02	-2.8510e-02	2.7473e+03
164	2.4271e-02	3.5398e-01	-1.2256e-01	-1.0642e-01	2.4932e+03
165	2.6273e-02	3.6150e-01	-5.8375e-02	-1.7966e-01	2.3148e+03
166	2.9373e-02	3.7388e-01	9.1719e-02	-1.0239e-01	2.3508e+03
167	3.1240e-02	3.8594e-01	1.4545e-01	-1.4524e-02	2.2996e+03
168	3.1439e-02	3.9698e-01	1.4546e-01	-5.1917e-02	1.7864e+03
169	2.7079e-02	4.0633e-01	-1.6662e-02	-7.9102e-02	1.6060e+03
170	2.4905e-02	4.1728e-01	-1.5157e-01	1.4354e-02	1.6285e+03
171	2.5485e-02	4.2756e-01	-1.3616e-01	5.4252e-02	1.3192e+03
172	2.9439e-02	4.3301e-01	1.7383e-02	-8.1423e-02	1.0514e+03
173	3.2688e-02	4.4216e-01	1.5442e-01	-1.1086e-01	1.1321e+03
174	2.5458e-02	4.5690e-01	8.5577e-02	-4.4725e-02	1.0618e+03
175	1.7063e-02	4.6824e-01	-2.0682e-01	1.1394e-01	6.2140e+02
176	2.3704e-02	4.7094e-01	-1.6174e-02	-2.1872e-02	7.2290e+02
177	3.1113e-02	4.7764e-01	8.5694e-02	-1.4612e-01	1.0984e+03
178	3.4903e-02	4.9087e-01	1.9906e-01	-9.0547e-02	8.8742e+02
179	3.4077e-02	5.0271e-01	2.1165e-01	-4.9536e-02	3.1460e+02
180	3.2087e-02	5.1339e-01	9.8982e-02	-4.5111e-02	4.8436e+01
181	3.1586e-02	5.2279e-01	8.8261e-02	-7.6977e-02	2.7310e+02
182	2.9453e-02	5.3448e-01	4.6697e-02	-4.9398e-02	-7.1889e+01
183	2.7761e-02	5.4433e-01	-8.4904e-02	5.3950e-03	2.7167e+02
184	2.8320e-02	5.5081e-01	-3.5497e-02	1.1740e-02	5.5197e+02
185	2.7518e-02	5.5607e-01	-4.5050e-02	-7.6682e-02	5.9056e+02
186	3.0472e-02	5.6539e-01	4.0684e-02	-9.8078e-02	3.3437e+02
187	3.0168e-02	5.8048e-01	-1.9077e-02	-1.1220e-01	-1.6993e+02
188	3.3816e-02	5.9084e-01	7.0519e-02	4.3678e-02	-6.4128e+02
189	2.8662e-02	6.1603e-01	6.1802e-02	2.3935e-01	3.9819e+02
190	1.0991e-02	6.1824e-01	-6.2630e-02	2.4802e-01	0.0000e+00
191	1.6731e-02	6.0942e-01	6.4317e-02	1.7027e-01	-2.1170e+02
192	1.8517e-02	6.6513e-03	-3.5319e-02	-1.2341e-01	4.1291e+03
193	2.9018e-02	1.6168e-03	-2.2616e-02	1.8137e-01	4.0060e+03
194	4.4937e-02	1.7958e-02	1.4943e-01	3.5045e-02	3.5100e+03
195	4.0115e-02	3.5158e-02	1.1890e-01	4.5993e-02	3.3954e+03
196	3.9012e-02	4.7985e-02	4.3038e-02	-1.1675e-01	3.3311e+03
197	3.1428e-02	5.0447e-02	-7.6921e-02	-1.0423e-01	3.2751e+03
198	3.4898e-02	6.2109e-02	-7.8699e-02	-3.6182e-02	3.2049e+03
199	4.0470e-02	7.3286e-02	3.6759e-02	-1.1767e-01	3.0418e+03
200	4.1080e-02	8.5813e-02	1.8084e-02	-7.3900e-03	3.4173e+03
201	3.1042e-02	9.8317e-02	-3.5330e-02	6.2209e-02	3.0345e+03
202	3.2150e-02	1.0889e-01	-7.2248e-03	4.7978e-02	3.0201e+03
203	3.7291e-02	1.1221e-01	5.5336e-02	-9.7886e-02	2.9183e+03
204	4.3649e-02	1.2086e-01	8.9072e-02	-3.7929e-02	3.0078e+03
205	4.0398e-02	1.3116e-01	5.1511e-02	-3.6973e-02	2.9711e+03
206	3.9711e-02	1.3680e-01	2.9881e-02	-1.3814e-01	2.8640e+03
207	4.2409e-02	1.5430e-01	-2.6023e-02	-2.4945e-03	2.6595e+03
208	4.3651e-02	1.6006e-01	1.7507e-02	-8.0422e-02	2.5675e+03
209	4.0785e-02	1.7579e-01	-5.4529e-03	-2.9503e-02	2.0907e+03
210	3.5806e-02	1.8770e-01	-1.3030e-01	1.3026e-01	1.9917e+03
211	3.0519e-02	1.9514e-01	-4.9085e-02	-1.4274e-01	2.0962e+03
212	2.2753e-02	2.0480e-01	-3.3702e-01	7.6163e-02	2.0161e+03
213	3.4159e-02	2.1017e-01	7.4016e-02	2.5055e-02	2.0025e+03
214	3.2618e-02	2.1575e-01	-9.9924e-02	1.1817e-02	1.9964e+03
215	3.0600e-02	2.2134e-01	-1.9250e-01	-1.2678e-01	1.7826e+03
216	3.7387e-02	2.3354e-01	3.0988e-02	-1.4784e-01	1.6076e+03
217	3.6763e-02	2.4713e-01	-2.0781e-02	-2.9477e-02	1.9877e+03
218	3.6771e-02	2.5298e-01	-6.2478e-02	-7.4032e-02	2.1433e+03
219	3.8848e-02	2.6195e-01	-2.3556e-02	-9.8705e-02	2.1531e+03
220	4.0957e-02	2.7394e-01	3.0207e-02	-7.8163e-02	2.3129e+03
221	4.2179e-02	2.8487e-01	8.2380e-02	-8.1602e-02	2.2558e+03
222	4.2016e-02	2.9692e-01	5.0872e-02	-7.1006e-02	2.2824e+03
223	4.0083e-02	3.0785e-01	-9.0115e-02	-5.0199e-02	2.2223e+03
224	3.9900e-02	3.1871e-01	-1.0944e-01	8.9104e-03	2.2634e+03
225	3.9258e-02	3.2905e-01	-6.8708e-02	6.6363e-03	2.3258e+03
226	3.6945e-02	3.3735e-01	-8.3074e-02	-5.6467e-02	2.2445e+03
227	3.6883e-02	3.4453e-01	-9.2134e-02	-7.2608e-02	2.2561e+03
228	3.8720e-02	3.5286e-01	-4.4310e-02	-6.0499e-02	2.2038e+03
229	4.0903e-02	3.6177e-01	-2.5408e-02	-8.8349e-02	2.2243e+03
230	4.2788e-02	3.7210e-01	-3.0003e-02	-9.9053e-02	2.2487e+03
231	4.2626e-02	3.8244e-01	-6.9301e-02	-8.1798e-02	2.1835e+03
232	4.2037e-02	3.9187e-01	-7.5385e-02	-9.3957e-02	2.0071e+03
233	4.2235e-02	4.0174e-01	-6.6045e-03	-9.7750e-02	1.7158e+03
234	4.2479e-02	4.1178e-01	5.9064e-02	-7.5887e-02	1.5304e+03
235	4.1462e-02	4.2146e-01	7.8824e-02	-1.0978e-01	1.2891e+03
236	4.1305e-02	4.3102e-01	5.2348e-02	-1.3619e-01	9.7068e+02
237	3.9694e-02	4.4199e-01	-2.1638e-02	-6.4821e-02	8.7132e+02
238	3.7005e-02	4.5291e-01	-1.2776e-01	-2.2723e-02	9.7420e+02
239	3.5706e-02	4.6218e-01	-1.7034e-01	-4.8758e-02	9.9044e+02
240	3.6754e-02	4.6972e-01	-1.7293e-01	-6.9029e-02	9.1383e+02
241	3.9758e-02	4.7871e-01	-1.1118e-01	-8.2981e-02	7.0320e+02
242	4.1163e-02	4.8813e-01	-1.0011e-01	-1.1349e-01	6.3666e+02
243	4.2024e-02	4.9791e-01	-4.5544e-02	-1.4423e-01	7.4134e+02
244	4.1925e-02	5.0873e-01	2.2231e-02	-1.5872e-01	5.3850e+02
245	4.1098e-02	5.1940e-01	4.4207e-02	-1.0159e-01	3.7856e+02
246	4.0587e-02	5.2879e-01	7.2020e-02	-1.0935e-01	1.9892e+02
247	3.9288e-02	5.3852e-01	7.7772e-02	-1.4392e-01	-5.0955e+02
248	3.8010e-02	5.4919e-01	3.5253e-02	-6.1496e-02	-7.0803e+02
249	3.9421e-02	5.5825e-01	1.7314e-02	8.6649e-03	-3.6891e+02
250	4.3143e-02	5.6633e-01	5.7104e-02	-2.6645e-02	-2.3385e+01
251	4.6746e-02	5.7679e-01	1.7620e-01	-1.1689e-01	2.8025e+02
252	4.5464e-02	5.9211e-01	2.3025e-01	2.0471e-02	6.4215e+01
253	4.2553e-02	6.0752e-01	3.8769e-02	8.5248e-02	1.4008e+02
254	2.8299e-02	6.1584e-01	3.2917e-02	1.6391e-01	6.7510e+02
255	2.9126e-02	6.1093e-01	9.4841e-02	1.2573e-01	2.4145e+02
256	3.7185e-02	1.2636e-02	-6.5531e-02	1.0074e-01	3.7765e+03
257	3.1715e-02	1.2985e-02	-1.7093e-01	-1.5668e-02	3.8337e+03
258	5.3697e-02	3.4535e-02	7.8822e-02	1.3306e-01	3.3722e+03
259	4.3825e-02	2.9940e-02	-1.2460e-01	-1.9589e-01	3.2823e+03
260	4.9716e-02	4.3245e-02	-6.7352e-02	-6.7172e-02	3.2073e+03
261	4.9854e-02	5.4789e-02	-7.2094e-02	1.8406e-02	3.0441e+03
262	3.9906e-02	5.9396e-02	-1.0734e-01	-1.8902e-01	3.0925e+03
263	5.1668e-02	7.4381e-02	8.6434e-02	-4.9259e-02	2.9550e+03
264	5.7272e-02	9.0472e-02	1.8086e-01	1.4375e-02	2.6042e+03
265	4.2176e-02	8.2057e-02	8.5209e-03	-1.1158e-01	3.2169e+03
266	4.3775e-02	9.4507e-02	-5.4735e-02	-1.1533e-01	3.3192e+03
267	4.9815e-02	1.0560e-01	-2.7053e-02	-1.2163e-01	2.9872e+03
268	4.9787e-02	1.1969e-01	5.1941e-03	-8.2211e-02	2.9424e+03
269	5.3401e-02	1.3290e-01	3.9776e-02	-2.4926e-02	2.8147e+03
270	5.0914e-02	1.4001e-01	2.4442e-02	-7.0604e-02	2.9204e+03
271	5.0419e-02	1.5226e-01	5.8044e-02	-6.6719e-02	2.7294e+03
272	4.8757e-02	1.6481e-01	9.6379e-03	6.4971e-02	2.5038e+03
273	4.8609e-02	1.7403e-01	-3.9664e-03	-4.9702e-03	2.2505e+03
274	4.8784e-02	1.8044e-01	1.3805e-02	-1.0326e-01	1.8600e+03
275	4.9249e-02	1.9108e-01	-1.5711e-02	4.8869e-02	1.9840e+03
276	4.8570e-02	1.9996e-01	-1.3172e-01	-5.5328e-02	2.1631e+03
277	4.5846e-02	2.0620e-01	-1.2683e-01	-1.7802e-01	2.0231e+03
278	4.4676e-02	2.1669e-01	-7.5196e-02	-6.0467e-02	1.7946e+03
279	4.5677e-02	2.2653e-01	-1.1995e-01	-4.8989e-02	1.7305e+03
280	4.7442e-02	2.3318e-01	-7.3266e-02	-1.3933e-01	1.6898e+03
281	4.8193e-02	2.4524e-01	2.4613e-02	-9.9707e-02	1.6773e+03
282	4.8139e-02	2.5559e-01	-1.0365e-02	-7.1098e-02	1.7111e+03
283	4.9216e-02	2.6483e-01	-3.5290e-02	-5.4874e-02	1.7334e+03
284	4.9555e-02	2.7492e-01	-9.6261e-02	-6.2399e-02	1.8807e+03
285	5.1143e-02	2.8422e-01	-7.6811e-02	-6.0656e-02	1.9103e+03
286	5.3580e-02	2.9431e-01	3.3243e-02	-7.5050e-02	2.0941e+03
287	5.3624e-02	3.0552e-01	8.9949e-02	-5.0093e-02	2.1381e+03
288	5.0802e-02	3.1656e-01	7.6101e-02	-3.5819e-02	1.8967e+03
289	4.7936e-02	3.2513e-01	-1.8186e-02	-4.5138e-02	2.0546e+03
290	4.7885e-02	3.3277e-01	-2.9259e-02	-7.6761e-02	2.0912e+03
291	4.9075e-02	3.4195e-01	6.9444e-03	-8.8940e-02	1.9955e+03
292	4.9383e-02	3.5144e-01	-1.0188e-02	-1.0877e-01	1.9389e+03
293	4.9356e-02	3.6089e-01	-3.4183e-02	-1.2442e-01	1.9190e+03
294	4.9527e-02	3.7088e-01	-2.3004e-02	-1.3313e-01	1.8086e+03
295	4.9994e-02	3.8157e-01	6.8542e-03	-1.0946e-01	1.5995e+03
296	5.0909e-02	3.9233e-01	3.6366e-02	-8.2010e-02	1.4493e+03
297	5.0711e-02	4.0308e-01	2.4795e-03	-7.3743e-02	1.3377e+03
298	4.9888e-02	4.1310e-01	-7.8229e-02	-5.9819e-02	1.2690e+03
299	5.0846e-02	4.2207e-01	-4.9866e-02	-8.2016e-02	1.2250e+03
300	5.1368e-02	4.3255e-01	2.8214e-02	-8.2752e-02	1.1135e+03
301	4.8845e-02	4.4349e-01	4.2330e-02	-5.4411e-02	9.0778e+02
302	4.5612e-02	4.5219e-01	-2.9701e-02	-6.4125e-02	7.1898e+02
303	4.5772e-02	4.6015e-01	-2.9325e-02	-9.3790e-02	5.1508e+02
304	4.7923e-02	4.6890e-01	1.0466e-02	-1.0988e-01	2.7702e+02
305	4.9533e-02	4.7812e-01	1.6673e-02	-1.3942e-01	1.8934e+02
306	5.0694e-02	4.8815e-01	1.7705e-02	-1.3486e-01	2.4624e+02
307	5.1574e-02	4.9844e-01	2.4964e-02	-1.1325e-01	4.0102e+02
308	5.2046e-02	5.0866e-01	4.7351e-02	-1.2096e-01	4.2243e+02
309	5.2025e-02	5.1916e-01	5.8228e-02	-1.0445e-01	3.8986e+02
310	5.2133e-02	5.2935e-01	3.4105e-02	-7.2701e-02	4.8380e+02
311	5.2634e-02	5.3861e-01	6.5346e-02	-8.6504e-02	5.3310e+02
312	5.2103e-02	5.4850e-01	1.1999e-01	-1.1091e-01	3.1954e+02
313	5.1028e-02	5.5918e-01	9.6762e-02	-6.6635e-02	1.3815e+01
314	5.0468e-02	5.6928e-01	-2.3788e-02	-3.9228e-02	4.4351e+01
315	5.1894e-02	5.7855e-01	-6.6856e-02	-2.3336e-02	-6.1489e+01
316	5.2421e-02	5.8943e-01	-2.5161e-02	-3.8245e-02	1.3286e+02
317	5.1772e-02	6.0062e-01	-1.1571e-02	-6.7645e-02	-8.8397e+01
318	4.6836e-02	6.1482e-01	-5.7399e-02	8.1031e-02	3.2346e+01
319	4.5380e-02	6.1319e-01	-8.3821e-02	7.3711e-02	1.8743e+02
320	4.6116e-02	2.3753e-03	-1.2803e-01	-3.3109e-02	3.4581e+03
321	5.6460e-02	8.4661e-03	4.8349e-03	-2.9464e-02	3.4981e+03
322	6.1159e-02	1.6164e-02	1.4068e-01	3.9223e-02	3.6435e+03
323	6.1810e-02	3.2058e-02	-2.0476e-02	-1.0623e-01	3.3003e+03
324	5.9362e-02	4.2754e-02	1.0595e-01	-6.6408e-02	3.1188e+03
325	5.6957e-02	5.6751e-02	-6.0928e-03	3.1672e-02	3.0980e+03
326	5.6195e-02	5.8278e-02	-1.5509e-02	-8.7619e-02	3.0810e+03
327	5.3282e-02	7.0572e-02	-8.7706e-02	-9.7844e-02	3.0404e+03
328	6.2247e-02	8.3913e-02	8.2075e-03	8.4976e-03	2.7882e+03
329	6.0621e-02	9.8966e-02	4.6254e-02	1.9111e-02	2.8925e+03
330	4.8628e-02	9.5609e-02	-2.6170e-01	-1.1989e-01	2.8717e+03
331	5.5466e-02	1.1057e-01	-1.0669e-01	-5.2819e-02	2.9328e+03
332	5.7477e-02	1.1572e-01	-1.7570e-02	-1.5452e-01	2.8637e+03
333	6.0381e-02	1.2669e-01	5.4140e-02	-7.8604e-02	2.5957e+03
334	6.0133e-02	1.3846e-01	-1.6987e-02	-6.9187e-02	2.6668e+03
335	6.0018e-02	1.4691e-01	-3.6213e-02	-1.1051e-02	2.7581e+03
336	6.2857e-02	1.5653e-01	2.3249e-02	-1.0271e-01	2.5662e+03
337	6.1878e-02	1.6788e-01	-6.0164e-04	-3.8022e-02	2.5765e+03
338	6.1018e-02	1.7826e-01	6.3203e-02	-1.1681e-01	2.4984e+03
339	5.7885e-02	1.8954e-01	5.9367e-02	-6.3466e-02	1.8297e+03
340	5.5882e-02	2.0059e-01	-4.2233e-02	-4.3057e-02	1.9277e+03
341	5.6311e-02	2.0834e-01	-1.9142e-03	-2.8390e-02	1.8153e+03
342	5.5749e-02	2.1924e-01	2.8360e-02	-4.8391e-02	1.9597e+03
343	5.4618e-02	2.2894e-01	-2.7268e-02	-8.4310e-02	1.9128e+03
344	5.6036e-02	2.3684e-01	-2.0497e-02	-2.6656e-02	1.8631e+03
345	5.8497e-02	2.4723e-01	-1.8051e-04	-5.6710e-02	2.0671e+03
346	5.9305e-02	2.5473e-01	2.0725e-02	-1.2202e-01	2.0249e+03
347	5.8827e-02	2.6419e-01	5.5853e-02	-8.7163e-02	1.8930e+03
348	5.8057e-02	2.7432e-01	6.7075e-02	-1.2297e-01	1.8106e+03
349	5.8131e-02	2.8436e-01	3.5828e-02	-8.9037e-02	1.8728e+03
350	6.0024e-02	2.9460e-01	1.8351e-02	-5.3359e-02	2.1090e+03
351	6.1661e-02	3.0379e-01	1.0060e-03	-5.6322e-02	2.2370e+03
352	6.2367e-02	3.1296e-01	1.6517e-03	-7.0842e-02	2.2692e+03
353	6.2158e-02	3.2272e-01	1.9093e-02	-9.6352e-02	2.2833e+03
354	6.1200e-02	3.3257e-01	9.5569e-03	-9.8290e-02	2.2541e+03
355	6.0058e-02	3.4208e-01	-1.3122e-02	-1.0485e-01	2.2060e+03
356	5.9330e-02	3.5169e-01	-8.6438e-03	-1.0917e-01	2.1083e+03
357	5.9651e-02	3.6174e-01	1.3148e-02	-9.6646e-02	1.9810e+03
358	6.0546e-02	3.7198e-01	2.5979e-02	-9.7480e-02	1.8491e+03
359	6.1034e-02	3.8247e-01	2.7701e-02	-9.6958e-02	1.6955e+03
360	6.1007e-02	3.9261e-01	2.3764e-02	-9.1377e-02	1.5768e+03
361	6.0771e-02	4.0225e-01	4.0152e-02	-1.0675e-01	1.3772e+03
362	5.9896e-02	4.1254e-01	4.6055e-02	-1.0387e-01	1.0493e+03
363	5.9365e-02	4.2299e-01	1.4242e-02	-6.2305e-02	9.6361e+02
364	5.9985e-02	4.3257e-01	-7.3574e-03	-4.4983e-02	9.8958e+02
365	6.0609e-02	4.4169e-01	-1.8074e-02	-5.2928e-02	1.0182e+03
366	6.0636e-02	4.5067e-01	-3.3986e-02	-6.9695e-02	1.0177e+03
367	6.0683e-02	4.5970e-01	-3.6067e-02	-9.0559e-02	9.9396e+02
368	6.1080e-02	4.6884e-01	-8.9382e-03	-1.1527e-01	9.6036e+02
369	6.1468e-02	4.7850e-01	3.5456e-02	-1.3525e-01	8.0464e+02
370	6.1391e-02	4.8875e-01	5.9487e-02	-1.3387e-01	4.9793e+02
371	6.0832e-02	4.9903e-01	3.9537e-02	-1.1994e-01	3.0219e+02
372	6.0487e-02	5.0917e-01	1.3585e-02	-1.0307e-01	2.4187e+02
373	6.0267e-02	5.1884e-01	4.5710e-03	-1.1863e-01	1.0125e+02
374	5.9588e-02	5.2935e-01	-3.6165e-02	-9.5726e-02	7.5266e+01
375	5.9266e-02	5.3913e-01	-8.2486e-02	-5.0895e-02	2.3765e+02
376	5.9827e-02	5.4861e-01	-7.7280e-02	-6.2529e-02	2.5849e+02
377	6.1199e-02	5.5765e-01	-3.9363e-03	-8.1427e-02	1.5633e+02
378	6.1833e-02	5.6733e-01	5.6305e-02	-1.2398e-01	-1.3220e+02
379	6.1083e-02	5.7845e-01	4.7413e-02	-4.8386e-02	-2.7131e+02
380	6.0101e-02	5.8913e-01	2.2783e-03	-3.8178e-02	2.2495e+01
381	6.0670e-02	5.9859e-01	1.8403e-02	-3.4784e-02	-1.1940e+01
382	5.8106e-02	6.1481e-01	2.1289e-02	-2.1968e-03	-9.2891e+01
383	5.9043e-02	6.1147e-01	2.4784e-02	-1.0380e-02	-8.3595e+01
384	6.3076e-02	1.6760e-03	-1.2423e-01	-2.2611e-01	3.5115e+03
385	6.7012e-02	1.7795e-02	-7.1812e-02	3.3740e-02	3.5957e+03
386	6.2650e-02	2.7793e-02	-2.2463e-01	-1.1025e-01	3.3611e+03
387	4.5845e-02	1.7851e-02	-2.0780e-01	-1.8829e-01	3.6067e+03
388	7.0326e-02	4.3762e-02	-2.3665e-02	-3.1116e-03	3.1916e+03
389	7.0989e-02	5.7080e-02	-5.0006e-03	3.7727e-03	3.0537e+03
390	6.7837e-02	6.5496e-02	-3.6064e-02	-5.9713e-02	2.9822e+03
391	6.3568e-02	7.3620e-02	-1.0227e-01	-6.9050e-02	2.8277e+03
392	6.8181e-02	8.1961e-02	3.0316e-02	-1.3017e-02	2.9460e+03
393	7.4239e-02	9.3886e-02	-2.0095e-02	-6.3456e-02	3.1255e+03
394	7.3630e-02	9.9888e-02	2.0223e-02	-1.1519e-01	3.0554e+03
395	6.7502e-02	1.0537e-01	1.1131e-02	-1.1924e-01	3.0886e+03
396	7.0958e-02	1.1709e-01	4.1375e-02	-1.1317e-01	2.9339e+03
397	7.1038e-02	1.2944e-01	5.3573e-02	-8.4678e-02	2.8064e+03
398	7.1482e-02	1.3549e-01	7.1512e-02	-1.3047e-01	2.7285e+03
399	7.0126e-02	1.5008e-01	5.0682e-02	-4.5401e-02	2.5484e+03
400	6.8940e-02	1.5648e-01	-6.2440e-02	-1.6049e-01	2.3546e+03
401	7.0209e-02	1.6884e-01	-5.1480e-02	-1.7804e-02	2.2495e+03
402	6.9905e-02	1.7863e-01	-9.5749e-02	-1.2464e-01	2.1890e+03
403	7.0370e-02	1.9028e-01	-4.9147e-02	1.9099e-03	2.0568e+03
404	6.8540e-02	2.0154e-01	-3.6279e-02	-6.0011e-02	2.0295e+03
405	6.8258e-02	2.1009e-01	-8.1973e-02	-1.8833e-02	1.8605e+03
406	6.7801e-02	2.1947e-01	-1.2807e-01	-1.5530e-02	1.9890e+03
407	6.8479e-02	2.2683e-01	-8.0750e-02	-1.1129e-01	1.9718e+03
408	6.9613e-02	2.3550e-01	-3.0839e-02	-7.0111e-02	1.8888e+03
409	6.9828e-02	2.4529e-01	-3.6008e-02	-9.8977e-02	1.9812e+03
410	7.0260e-02	2.5344e-01	-3.9713e-02	-1.1062e-01	1.9827e+03
411	7.1416e-02	2.6304e-01	-3.7895e-02	-5.2321e-02	2.1320e+03
412	7.2482e-02	2.7261e-01	-5.6267e-02	-1.0444e-01	2.3724e+03
413	7.3181e-02	2.8200e-01	-2.5352e-02	-1.1752e-01	2.3432e+03
414	7.3240e-02	2.9259e-01	2.6347e-02	-1.2653e-01	2.2471e+03
415	7.2455e-02	3.0307e-01	3.4237e-02	-1.2551e-01	2.0878e+03
416	7.1409e-02	3.1404e-01	-5.8052e-05	-8.2601e-02	2.0455e+03
417	7.0326e-02	3.2459e-01	-4.4180e-02	-7.5592e-02	2.0601e+03
418	6.9742e-02	3.3463e-01	-5.8201e-02	-6.8039e-02	2.0275e+03
419	7.0161e-02	3.4435e-01	-3.6969e-02	-6.1941e-02	2.0383e+03
420	7.0811e-02	3.5375e-01	-2.2317e-02	-7.3915e-02	2.0607e+03
421	7.1024e-02	3.6310e-01	-2.9103e-02	-8.5299e-02	2.0443e+03
422	7.1008e-02	3.7250e-01	-3.5233e-02	-9.1220e-02	1.9854e+03
423	7.1016e-02	3.8211e-01	-2.7081e-02	-9.6912e-02	1.8795e+03
424	7.1158e-02	3.9205e-01	-1.7244e-02	-8.7906e-02	1.7534e+03
425	7.1590e-02	4.0193e-01	-1.3211e-02	-7.3023e-02	1.6215e+03
426	7.2041e-02	4.1163e-01	4.0148e-04	-7.9052e-02	1.4707e+03
427	7.1926e-02	4.2143e-01	2.5643e-02	-9.4253e-02	1.2873e+03
428	7.1055e-02	4.3126e-01	3.3460e-02	-1.0473e-01	1.0112e+03
429	6.9710e-02	4.4103e-01	-1.7523e-03	-1.0296e-01	7.4300e+02
430	6.8631e-02	4.5059e-01	-5.7017e-02	-9.4838e-02	6.0003e+02
431	6.8570e-02	4.5998e-01	-8.5726e-02	-8.5865e-02	5.4318e+02
432	6.9424e-02	4.6935e-01	-7.6674e-02	-8.2941e-02	5.5893e+02
433	7.0504e-02	4.7894e-01	-5.2428e-02	-9.1372e-02	5.8994e+02
434	7.1388e-02	4.8879e-01	-1.6974e-02	-1.0164e-01	5.8295e+02
435	7.1827e-02	4.9872e-01	2.3032e-02	-1.1617e-01	5.1207e+02
436	7.1868e-02	5.0906e-01	4.6512e-02	-9.9386e-02	4.2873e+02
437	7.1982e-02	5.1866e-01	6.9345e-02	-1.0277e-01	3.2418e+02
438	7.2054e-02	5.2878e-01	1.0043e-01	-1.0479e-01	1.2257e+02
439	7.1734e-02	5.3845e-01	1.0831e-01	-9.8287e-02	-5.3247e+01
440	7.1101e-02	5.4865e-01	7.3953e-02	-8.9983e-02	-7.0642e+01
441	7.1237e-02	5.5840e-01	4.7517e-02	-4.9750e-02	8.4144e+01
442	7.1946e-02	5.6807e-01	4.4965e-02	-8.1198e-02	5.4383e+01
443	7.2416e-02	5.7824e-01	5.6051e-02	-5.0395e-02	-1.0742e+00
444	7.1582e-02	5.8849e-01	4.1085e-02	-8.0961e-02	-4.7004e+01
445	7.1612e-02	5.9761e-01	2.0739e-02	-3.7725e-02	-4.9397e+01
446	6.9085e-02	6.1432e-01	-3.7522e-02	-1.0176e-01	0.0000e+00
447	6.9831e-02	6.1000e-01	-2.9752e-02	-2.2379e-02	2.2112e+02
448	7.5815e-02	8.4663e-04	2.2057e-02	-1.6933e-01	3.4197e+03
449	7.6973e-02	1.6249e-02	-5.6887e-02	-9.5365e-03	3.4922e+03
450	7.7426e-02	2.4688e-02	4.5873e-02	-8.4845e-02	3.2235e+03
451	7.5710e-02	3.3385e-02	3.9795e-02	4.9538e-02	3.0800e+03
452	7.7672e-02	4.4545e-02	-4.2160e-02	-6.4895e-02	3.0919e+03
453	7.7412e-02	5.3620e-02	-6.4430e-02	-7.8436e-02	2.9246e+03
454	7.8403e-02	6.0482e-02	8.4417e-03	-4.3608e-02	2.9003e+03
455	7.7869e-02	7.2667e-02	-3.4799e-03	-4.8843e-02	2.8412e+03
456	7.7665e-02	8.0301e-02	-4.8851e-02	-8.9439e-02	2.8280e+03
457	8.0161e-02	9.0041e-02	-1.1399e-02	-9.9922e-02	2.8489e+03
458	8.4406e-02	1.0206e-01	8.3469e-02	-4.6528e-02	2.6708e+03
459	7.7599e-02	1.1127e-01	-4.1047e-02	-3.5841e-02	2.7954e+03
460	7.7602e-02	1.1985e-01	-9.8848e-02	-1.0051e-01	2.7901e+03
461	8.0383e-02	1.3014e-01	-4.4152e-02	-3.7748e-02	2.7190e+03
462	8.2206e-02	1.4187e-01	-1.1452e-02	-3.6721e-02	2.7218e+03
463	8.2134e-02	1.5159e-01	2.1454e-02	-7.2326e-02	2.7136e+03
464	7.9242e-02	1.5989e-01	8.8279e-02	-6.6517e-02	2.4532e+03
465	7.8981e-02	1.7368e-01	1.0372e-01	-2.2369e-02	2.2685e+03
466	7.6363e-02	1.8046e-01	-1.2304e-02	-8.1161e-02	2.1078e+03
467	7.6536e-02	1.9038e-01	-3.2566e-02	2.4314e-02	2.1896e+03
468	7.8581e-02	2.0051e-01	1.9979e-02	-5.5573e-02	2.3213e+03
469	7.6916e-02	2.0633e-01	-1.8307e-02	-1.1866e-01	2.0690e+03
470	7.7652e-02	2.1780e-01	1.3950e-02	-3.4868e-02	1.8465e+03
471	7.8419e-02	2.2629e-01	1.5391e-03	-1.0082e-01	1.8424e+03
472	7.8925e-02	2.3407e-01	-4.2101e-03	-8.3184e-02	1.8373e+03
473	8.0053e-02	2.4458e-01	2.8275e-02	-9.7175e-02	1.9233e+03
474	8.0088e-02	2.5323e-01	3.5469e-02	-1.3279e-01	1.8043e+03
475	7.9442e-02	2.6401e-01	-1.0714e-03	-8.9130e-02	1.8568e+03
476	7.8645e-02	2.7372e-01	-7.5123e-02	-1.1287e-01	2.0524e+03
477	7.8923e-02	2.8322e-01	-7.8425e-02	-8.2585e-02	2.0420e+03
478	8.0113e-02	2.9348e-01	-2.0881e-02	-9.1028e-02	2.1100e+03
479	8.0829e-02	3.0368e-01	2.6584e-02	-9.8807e-02	2.1213e+03
480	8.0601e-02	3.1446e-01	4.5945e-02	-7.5718e-02	2.1217e+03
481	8.0011e-02	3.2473e-01	4.5793e-02	-7.2144e-02	2.1393e+03
482	7.9874e-02	3.3455e-01	3.9764e-02	-7.1387e-02	2.1010e+03
483	8.0001e-02	3.4411e-01	2.4125e-02	-8.0106e-02	2.0780e+03
484	7.9936e-02	3.5339e-01	3.0879e-03	-9.1445e-02	2.0126e+03
485	7.9858e-02	3.6279e-01	-1.0630e-02	-9.0929e-02	1.8908e+03
486	8.0093e-02	3.7240e-01	-1.3921e-02	-8.3524e-02	1.7636e+03
487	8.0576e-02	3.8196e-01	-9.7880e-03	-8.6115e-02	1.6370e+03
488	8.0862e-02	3.9162e-01	-4.5783e-03	-9.6019e-02	1.4861e+03
489	8.0612e-02	4.0154e-01	-1.7541e-02	-9.5769e-02	1.3424e+03
490	8.0327e-02	4.1142e-01	-4.3674e-02	-8.4332e-02	1.2493e+03
491	8.0735e-02	4.2099e-01	-4.1259e-02	-7.8713e-02	1.1557e+03
492	8.1474e-02	4.3057e-01	-1.0729e-02	-8.2680e-02	1.0451e+03
493	8.1793e-02	4.4037e-01	2.5186e-02	-8.7188e-02	9.2947e+02
494	8.1577e-02	4.5021e-01	5.8039e-02	-9.4926e-02	7.7362e+02
495	8.1144e-02	4.6006e-01	7.2997e-02	-1.0293e-01	5.4593e+02
496	8.0782e-02	4.6980e-01	6.2516e-02	-1.0734e-01	3.5911e+02
497	8.0580e-02	4.7960e-01	3.4703e-02	-1.0534e-01	2.9886e+02