variables="k","x","y","vx","vy","pressure"
zone i=8064 j=1
0	1.3078e-02	9.4507e-03	-4.4259e-02	-1.7810e-01	0.0000e+00
1	1.3048e-02	1.9316e-02	-4.2867e-02	-1.9828e-01	0.0000e+00
2	1.3086e-02	2.9371e-02	-3.4199e-02	-1.9486e-01	0.0000e+00
3	1.3060e-02	3.9347e-02	-4.3731e-02	-1.9710e-01	2.0674e+02
4	1.3097e-02	4.9354e-02	-3.5519e-02	-1.9303e-01	1.5139e+02
5	1.3130e-02	5.9364e-02	-2.9222e-02	-1.9224e-01	1.3739e+02
6	1.3153e-02	6.9359e-02	-2.5717e-02	-1.9361e-01	1.2774e+02
7	1.3170e-02	7.9355e-02	-2.2689e-02	-1.9398e-01	1.0661e+02
8	1.3186e-02	8.9353e-02	-1.9700e-02	-1.9419e-01	8.8340e+01
9	1.3199e-02	9.9352e-02	-1.7210e-02	-1.9459e-01	7.6386e+01
10	1.3211e-02	1.0935e-01	-1.5169e-02	-1.9494e-01	6.6819e+01
11	1.3220e-02	1.1935e-01	-1.3392e-02	-1.9516e-01	5.8602e+01
12	1.3229e-02	1.2935e-01	-1.1831e-02	-1.9535e-01	5.2048e+01
13	1.3236e-02	1.3935e-01	-1.0469e-02	-1.9552e-01	4.6772e+01
14	1.3242e-02	1.4935e-01	-9.2718e-03	-1.9566e-01	4.2212e+01
15	1.3248e-02	1.5934e-01	-8.2186e-03	-1.9579e-01	3.8048e+01
16	1.3253e-02	1.6934e-01	-7.2940e-03	-1.9590e-01	3.4146e+01
17	1.3257e-02	1.7934e-01	-6.4831e-03	-1.9600e-01	3.0477e+01
18	1.3260e-02	1.8934e-01	-5.7731e-03	-1.9608e-01	2.7067e+01
19	1.3264e-02	1.9934e-01	-5.1525e-03	-1.9616e-01	2.3946e+01
20	1.3266e-02	2.0934e-01	-4.6097e-03	-1.9623e-01	2.1138e+01
21	1.3269e-02	2.1934e-01	-4.1343e-03	-1.9628e-01	1.8651e+01
22	1.3271e-02	2.2934e-01	-3.7171e-03	-1.9633e-01	1.6473e+01
23	1.3273e-02	2.3934e-01	-3.3498e-03	-1.9638e-01	1.4578e+01
24	1.3275e-02	2.4934e-01	-3.0254e-03	-1.9641e-01	1.2934e+01
25	1.3277e-02	2.5934e-01	-2.7379e-03	-1.9644e-01	1.1508e+01
26	1.3278e-02	2.6934e-01	-2.4823e-03	-1.9647e-01	1.0266e+01
27	1.3279e-02	2.7934e-01	-2.2543e-03	-1.9649e-01	9.1814e+00
28	1.3281e-02	2.8934e-01	-2.0503e-03	-1.9651e-01	8.2291e+00
29	1.3282e-02	2.9934e-01	-1.8673e-03	-1.9653e-01	7.3895e+00
30	1.3283e-02	3.0934e-01	-1.7027e-03	-1.9655e-01	6.6464e+00
31	1.3283e-02	3.1934e-01	-1.5544e-03	-1.9656e-01	5.9865e+00
32	1.3284e-02	3.2934e-01	-1.4204e-03	-1.9657e-01	5.3987e+00
33	1.3285e-02	3.3934e-01	-1.2990e-03	-1.9659e-01	4.8739e+00
34	1.3286e-02	3.4934e-01	-1.1890e-03	-1.9660e-01	4.4045e+00
35	1.3286e-02	3.5934e-01	-1.0890e-03	-1.9660e-01	3.9840e+00
36	1.3287e-02	3.6934e-01	-9.9797e-04	-1.9661e-01	3.6069e+00
37	1.3287e-02	3.7934e-01	-9.1500e-04	-1.9662e-01	3.2685e+00
38	1.3288e-02	3.8934e-01	-8.3926e-04	-1.9662e-01	2.9647e+00
39	1.3288e-02	3.9934e-01	-7.7001e-04	-1.9663e-01	2.6920e+00
40	1.3289e-02	4.0934e-01	-7.0660e-04	-1.9664e-01	2.4470e+00
41	1.3289e-02	4.1934e-01	-6.4845e-04	-1.9664e-01	2.2268e+00
42	1.3289e-02	4.2934e-01	-5.9503e-04	-1.9664e-01	2.0286e+00
43	1.3290e-02	4.3934e-01	-5.4587e-04	-1.9665e-01	1.8496e+00
44	1.3290e-02	4.4934e-01	-5.0054e-04	-1.9665e-01	1.6873e+00
45	1.3290e-02	4.5934e-01	-4.5864e-04	-1.9665e-01	1.5392e+00
46	1.3291e-02	4.6934e-01	-4.1982e-04	-1.9666e-01	1.4030e+00
47	1.3291e-02	4.7934e-01	-3.8375e-04	-1.9666e-01	1.2769e+00
48	1.3291e-02	4.8934e-01	-3.5016e-04	-1.9666e-01	1.1593e+00
49	1.3291e-02	4.9934e-01	-3.1876e-04	-1.9666e-01	1.0492e+00
50	1.3291e-02	5.0934e-01	-2.8931e-04	-1.9666e-01	9.4567e-01
51	1.3292e-02	5.1934e-01	-2.6160e-04	-1.9667e-01	8.4838e-01
52	1.3292e-02	5.2934e-01	-2.3541e-04	-1.9667e-01	7.5714e-01
53	1.3292e-02	5.3934e-01	-2.1055e-04	-1.9667e-01	6.7160e-01
54	1.3292e-02	5.4934e-01	-1.8688e-04	-1.9667e-01	5.9133e-01
55	1.3292e-02	5.5934e-01	-1.6424e-04	-1.9667e-01	5.1626e-01
56	1.3293e-02	5.6934e-01	-1.4240e-04	-1.9667e-01	4.4578e-01
57	1.3293e-02	5.7934e-01	-1.2139e-04	-1.9667e-01	3.7868e-01
58	1.3293e-02	5.8934e-01	-1.0086e-04	-1.9667e-01	3.1363e-01
59	1.3293e-02	5.9934e-01	-8.0620e-05	-1.9667e-01	2.4752e-01
60	1.3293e-02	6.0934e-01	-6.5243e-05	-1.9667e-01	1.9662e-01
61	1.3293e-02	6.1934e-01	-2.8571e-05	-1.9667e-01	0.0000e+00
62	1.3294e-02	6.2934e-01	-1.1885e-05	-1.9668e-01	0.0000e+00
63	1.3294e-02	6.3934e-01	-1.8504e-06	-1.9669e-01	0.0000e+00
64	2.2827e-02	9.4389e-03	-9.3856e-02	-1.7578e-01	0.0000e+00
65	2.2795e-02	1.9254e-02	-8.8076e-02	-1.9725e-01	5.5424e+02
66	2.3025e-02	2.9466e-02	-4.6123e-02	-1.7950e-01	3.2707e+02
67	2.3102e-02	3.9398e-02	-3.5701e-02	-1.9002e-01	2.6962e+02
68	2.3134e-02	4.9379e-02	-2.9241e-02	-1.8828e-01	1.8794e+02
69	2.3161e-02	5.9380e-02	-2.4025e-02	-1.8920e-01	1.6743e+02
70	2.3179e-02	6.9372e-02	-2.1021e-02	-1.9144e-01	1.5790e+02
71	2.3194e-02	7.9366e-02	-1.8383e-02	-1.9205e-01	1.3134e+02
72	2.3206e-02	8.9362e-02	-1.5994e-02	-1.9252e-01	1.0915e+02
73	2.3217e-02	9.9359e-02	-1.4025e-02	-1.9319e-01	9.5359e+01
74	2.3226e-02	1.0936e-01	-1.2366e-02	-1.9374e-01	8.4112e+01
75	2.3234e-02	1.1935e-01	-1.0917e-02	-1.9412e-01	7.4101e+01
76	2.3241e-02	1.2935e-01	-9.6460e-03	-1.9443e-01	6.5977e+01
77	2.3246e-02	1.3935e-01	-8.5362e-03	-1.9472e-01	5.9335e+01
78	2.3251e-02	1.4935e-01	-7.5644e-03	-1.9496e-01	5.3481e+01
79	2.3256e-02	1.5935e-01	-6.7119e-03	-1.9517e-01	4.8099e+01
80	2.3260e-02	1.6935e-01	-5.9657e-03	-1.9536e-01	4.3074e+01
81	2.3263e-02	1.7935e-01	-5.3129e-03	-1.9552e-01	3.8378e+01
82	2.3266e-02	1.8935e-01	-4.7416e-03	-1.9567e-01	3.4043e+01
83	2.3269e-02	1.9934e-01	-4.2418e-03	-1.9580e-01	3.0101e+01
84	2.3271e-02	2.0934e-01	-3.8039e-03	-1.9591e-01	2.6569e+01
85	2.3273e-02	2.1934e-01	-3.4193e-03	-1.9600e-01	2.3449e+01
86	2.3275e-02	2.2934e-01	-3.0806e-03	-1.9609e-01	2.0721e+01
87	2.3277e-02	2.3934e-01	-2.7815e-03	-1.9616e-01	1.8348e+01
88	2.3278e-02	2.4934e-01	-2.5165e-03	-1.9622e-01	1.6287e+01
89	2.3279e-02	2.5934e-01	-2.2809e-03	-1.9627e-01	1.4497e+01
90	2.3281e-02	2.6934e-01	-2.0709e-03	-1.9632e-01	1.2937e+01
91	2.3282e-02	2.7934e-01	-1.8832e-03	-1.9636e-01	1.1571e+01
92	2.3283e-02	2.8934e-01	-1.7149e-03	-1.9639e-01	1.0372e+01
93	2.3283e-02	2.9934e-01	-1.5636e-03	-1.9642e-01	9.3129e+00
94	2.3284e-02	3.0934e-01	-1.4274e-03	-1.9645e-01	8.3749e+00
95	2.3285e-02	3.1934e-01	-1.3045e-03	-1.9647e-01	7.5412e+00
96	2.3286e-02	3.2934e-01	-1.1932e-03	-1.9649e-01	6.7981e+00
97	2.3286e-02	3.3934e-01	-1.0924e-03	-1.9651e-01	6.1343e+00
98	2.3287e-02	3.4934e-01	-1.0008e-03	-1.9653e-01	5.5403e+00
99	2.3287e-02	3.5934e-01	-9.1752e-04	-1.9654e-01	5.0081e+00
100	2.3288e-02	3.6934e-01	-8.4160e-04	-1.9656e-01	4.5309e+00
101	2.3288e-02	3.7934e-01	-7.7230e-04	-1.9657e-01	4.1028e+00
102	2.3289e-02	3.8934e-01	-7.0894e-04	-1.9658e-01	3.7189e+00
103	2.3289e-02	3.9934e-01	-6.5092e-04	-1.9659e-01	3.3747e+00
104	2.3289e-02	4.0934e-01	-5.9770e-04	-1.9660e-01	3.0660e+00
105	2.3290e-02	4.1934e-01	-5.4881e-04	-1.9660e-01	2.7890e+00
106	2.3290e-02	4.2934e-01	-5.0382e-04	-1.9661e-01	2.5401e+00
107	2.3290e-02	4.3934e-01	-4.6235e-04	-1.9662e-01	2.3157e+00
108	2.3291e-02	4.4934e-01	-4.2407e-04	-1.9662e-01	2.1125e+00
109	2.3291e-02	4.5934e-01	-3.8865e-04	-1.9663e-01	1.9273e+00
110	2.3291e-02	4.6934e-01	-3.5581e-04	-1.9663e-01	1.7572e+00
111	2.3291e-02	4.7934e-01	-3.2530e-04	-1.9664e-01	1.5998e+00
112	2.3291e-02	4.8934e-01	-2.9688e-04	-1.9664e-01	1.4531e+00
113	2.3292e-02	4.9934e-01	-2.7032e-04	-1.9664e-01	1.3156e+00
114	2.3292e-02	5.0934e-01	-2.4542e-04	-1.9665e-01	1.1863e+00
115	2.3292e-02	5.1934e-01	-2.2199e-04	-1.9665e-01	1.0647e+00
116	2.3292e-02	5.2934e-01	-1.9985e-04	-1.9665e-01	9.5047e-01
117	2.3292e-02	5.3934e-01	-1.7883e-04	-1.9665e-01	8.4319e-01
118	2.3292e-02	5.4934e-01	-1.5881e-04	-1.9665e-01	7.4239e-01
119	2.3293e-02	5.5934e-01	-1.3967e-04	-1.9666e-01	6.4804e-01
120	2.3293e-02	5.6934e-01	-1.2122e-04	-1.9666e-01	5.5901e-01
121	2.3293e-02	5.7934e-01	-1.0357e-04	-1.9666e-01	4.7512e-01
122	2.3293e-02	5.8934e-01	-8.6449e-05	-1.9666e-01	3.9570e-01
123	2.3293e-02	5.9934e-01	-6.9177e-05	-1.9666e-01	3.0728e-01
124	2.3293e-02	6.0934e-01	-5.5809e-05	-1.9666e-01	2.4235e-01
125	2.3293e-02	6.1934e-01	-4.8240e-05	-1.9665e-01	2.9433e-01
126	2.3293e-02	6.2934e-01	-2.0038e-05	-1.9666e-01	0.0000e+00
127	2.3294e-02	6.3934e-01	-5.8395e-06	-1.9668e-01	0.0000e+00
128	3.2664e-02	9.1437e-03	-9.8993e-02	-2.6768e-01	1.7825e+03
129	3.2983e-02	1.9558e-02	-5.3561e-02	-1.4234e-01	3.2958e+02
130	3.3168e-02	2.9520e-02	-2.8244e-02	-1.6928e-01	3.5623e+02
131	3.3124e-02	3.9398e-02	-3.2080e-02	-1.8856e-01	4.2733e+02
132	3.3137e-02	4.9410e-02	-2.8463e-02	-1.8295e-01	3.0303e+02
133	3.3167e-02	5.9397e-02	-2.3541e-02	-1.8592e-01	2.6677e+02
134	3.3181e-02	6.9385e-02	-2.0679e-02	-1.8896e-01	2.4499e+02
135	3.3196e-02	7.9379e-02	-1.8013e-02	-1.8975e-01	2.0539e+02
136	3.3208e-02	8.9372e-02	-1.5736e-02	-1.9066e-01	1.7466e+02
137	3.3218e-02	9.9368e-02	-1.3878e-02	-1.9160e-01	1.5372e+02
138	3.3227e-02	1.0936e-01	-1.2239e-02	-1.9235e-01	1.3616e+02
139	3.3234e-02	1.1936e-01	-1.0804e-02	-1.9291e-01	1.2073e+02
140	3.3241e-02	1.2936e-01	-9.5537e-03	-1.9338e-01	1.0775e+02
141	3.3247e-02	1.3936e-01	-8.4576e-03	-1.9379e-01	9.6671e+01
142	3.3252e-02	1.4935e-01	-7.4986e-03	-1.9415e-01	8.6738e+01
143	3.3256e-02	1.5935e-01	-6.6600e-03	-1.9446e-01	7.7613e+01
144	3.3260e-02	1.6935e-01	-5.9269e-03	-1.9474e-01	6.9196e+01
145	3.3263e-02	1.7935e-01	-5.2865e-03	-1.9498e-01	6.1457e+01
146	3.3266e-02	1.8935e-01	-4.7265e-03	-1.9520e-01	5.4421e+01
147	3.3268e-02	1.9935e-01	-4.2360e-03	-1.9538e-01	4.8106e+01
148	3.3271e-02	2.0935e-01	-3.8055e-03	-1.9554e-01	4.2501e+01
149	3.3273e-02	2.1935e-01	-3.4266e-03	-1.9568e-01	3.7577e+01
150	3.3275e-02	2.2934e-01	-3.0921e-03	-1.9580e-01	3.3279e+01
151	3.3276e-02	2.3934e-01	-2.7959e-03	-1.9591e-01	2.9540e+01
152	3.3278e-02	2.4934e-01	-2.5328e-03	-1.9600e-01	2.6286e+01
153	3.3279e-02	2.5934e-01	-2.2985e-03	-1.9607e-01	2.3451e+01
154	3.3280e-02	2.6934e-01	-2.0891e-03	-1.9614e-01	2.0972e+01
155	3.3281e-02	2.7934e-01	-1.9017e-03	-1.9620e-01	1.8795e+01
156	3.3282e-02	2.8934e-01	-1.7334e-03	-1.9625e-01	1.6876e+01
157	3.3283e-02	2.9934e-01	-1.5820e-03	-1.9629e-01	1.5178e+01
158	3.3284e-02	3.0934e-01	-1.4454e-03	-1.9633e-01	1.3669e+01
159	3.3285e-02	3.1934e-01	-1.3220e-03	-1.9637e-01	1.2325e+01
160	3.3286e-02	3.2934e-01	-1.2102e-03	-1.9640e-01	1.1124e+01
161	3.3286e-02	3.3934e-01	-1.1088e-03	-1.9643e-01	1.0050e+01
162	3.3287e-02	3.4934e-01	-1.0166e-03	-1.9645e-01	9.0859e+00
163	3.3287e-02	3.5934e-01	-9.3264e-04	-1.9647e-01	8.2208e+00
164	3.3288e-02	3.6934e-01	-8.5607e-04	-1.9649e-01	7.4440e+00
165	3.3288e-02	3.7934e-01	-7.8611e-04	-1.9651e-01	6.7463e+00
166	3.3289e-02	3.8934e-01	-7.2208e-04	-1.9652e-01	6.1197e+00
167	3.3289e-02	3.9934e-01	-6.6338e-04	-1.9654e-01	5.5574e+00
168	3.3289e-02	4.0934e-01	-6.0948e-04	-1.9655e-01	5.0527e+00
169	3.3290e-02	4.1934e-01	-5.5990e-04	-1.9656e-01	4.5994e+00
170	3.3290e-02	4.2934e-01	-5.1424e-04	-1.9657e-01	4.1918e+00
171	3.3290e-02	4.3934e-01	-4.7210e-04	-1.9658e-01	3.8240e+00
172	3.3290e-02	4.4934e-01	-4.3316e-04	-1.9659e-01	3.4907e+00
173	3.3291e-02	4.5934e-01	-3.9711e-04	-1.9660e-01	3.1867e+00
174	3.3291e-02	4.6934e-01	-3.6367e-04	-1.9660e-01	2.9075e+00
175	3.3291e-02	4.7934e-01	-3.3258e-04	-1.9661e-01	2.6491e+00
176	3.3291e-02	4.8934e-01	-3.0361e-04	-1.9662e-01	2.4083e+00
177	3.3292e-02	4.9934e-01	-2.7654e-04	-1.9662e-01	2.1828e+00
178	3.3292e-02	5.0934e-01	-2.5115e-04	-1.9662e-01	1.9709e+00
179	3.3292e-02	5.1934e-01	-2.2725e-04	-1.9663e-01	1.7712e+00
180	3.3292e-02	5.2934e-01	-2.0467e-04	-1.9663e-01	1.5832e+00
181	3.3292e-02	5.3934e-01	-1.8321e-04	-1.9663e-01	1.4063e+00
182	3.3292e-02	5.4934e-01	-1.6276e-04	-1.9664e-01	1.2395e+00
183	3.3293e-02	5.5934e-01	-1.4320e-04	-1.9664e-01	1.0823e+00
184	3.3293e-02	5.6934e-01	-1.2437e-04	-1.9664e-01	9.3381e-01
185	3.3293e-02	5.7934e-01	-1.0621e-04	-1.9664e-01	7.9278e-01
186	3.3293e-02	5.8934e-01	-8.9023e-05	-1.9664e-01	6.6138e-01
187	3.3293e-02	5.9934e-01	-7.1346e-05	-1.9665e-01	5.2320e-01
188	3.3293e-02	6.0934e-01	-5.2641e-05	-1.9665e-01	3.7792e-01
189	3.3293e-02	6.1934e-01	-4.0110e-05	-1.9664e-01	3.3439e-01
190	3.3293e-02	6.2934e-01	-2.9925e-05	-1.9664e-01	0.0000e+00
191	3.3294e-02	6.3934e-01	-1.3693e-05	-1.9667e-01	0.0000e+00
192	4.2834e-02	8.3452e-03	-6.1239e-02	-3.0836e-01	2.1504e+03
193	4.3088e-02	1.9982e-02	-3.5758e-02	-9.8702e-02	3.6516e+02
194	4.3168e-02	2.9485e-02	-3.0335e-02	-1.7377e-01	5.6964e+02
195	4.3110e-02	3.9372e-02	-3.3817e-02	-1.8843e-01	6.2256e+02
196	4.3142e-02	4.9453e-02	-2.7439e-02	-1.7629e-01	4.1707e+02
197	4.3173e-02	5.9416e-02	-2.2827e-02	-1.8272e-01	3.7119e+02
198	4.3184e-02	6.9397e-02	-2.0469e-02	-1.8637e-01	3.3533e+02
199	4.3197e-02	7.9393e-02	-1.7892e-02	-1.8721e-01	2.8243e+02
200	4.3209e-02	8.9383e-02	-1.5709e-02	-1.8867e-01	2.4412e+02
201	4.3219e-02	9.9377e-02	-1.3928e-02	-1.8988e-01	2.1568e+02
202	4.3227e-02	1.0937e-01	-1.2313e-02	-1.9080e-01	1.9154e+02
203	4.3234e-02	1.1937e-01	-1.0892e-02	-1.9157e-01	1.7072e+02
204	4.3241e-02	1.2936e-01	-9.6517e-03	-1.9220e-01	1.5275e+02
205	4.3246e-02	1.3936e-01	-8.5586e-03	-1.9276e-01	1.3699e+02
206	4.3251e-02	1.4936e-01	-7.5992e-03	-1.9325e-01	1.2268e+02
207	4.3255e-02	1.5936e-01	-6.7588e-03	-1.9367e-01	1.0951e+02
208	4.3259e-02	1.6935e-01	-6.0227e-03	-1.9405e-01	9.7392e+01
209	4.3263e-02	1.7935e-01	-5.3784e-03	-1.9438e-01	8.6330e+01
210	4.3265e-02	1.8935e-01	-4.8142e-03	-1.9467e-01	7.6346e+01
211	4.3268e-02	1.9935e-01	-4.3190e-03	-1.9492e-01	6.7443e+01
212	4.3270e-02	2.0935e-01	-3.8836e-03	-1.9514e-01	5.9583e+01
213	4.3272e-02	2.1935e-01	-3.4997e-03	-1.9532e-01	5.2700e+01
214	4.3274e-02	2.2935e-01	-3.1602e-03	-1.9548e-01	4.6703e+01
215	4.3276e-02	2.3935e-01	-2.8592e-03	-1.9562e-01	4.1487e+01
216	4.3277e-02	2.4935e-01	-2.5914e-03	-1.9574e-01	3.6945e+01
217	4.3279e-02	2.5934e-01	-2.3526e-03	-1.9585e-01	3.2983e+01
218	4.3280e-02	2.6934e-01	-2.1390e-03	-1.9594e-01	2.9514e+01
219	4.3281e-02	2.7934e-01	-1.9476e-03	-1.9602e-01	2.6463e+01
220	4.3282e-02	2.8934e-01	-1.7757e-03	-1.9609e-01	2.3771e+01
221	4.3283e-02	2.9934e-01	-1.6208e-03	-1.9615e-01	2.1386e+01
222	4.3284e-02	3.0934e-01	-1.4810e-03	-1.9620e-01	1.9265e+01
223	4.3285e-02	3.1934e-01	-1.3547e-03	-1.9625e-01	1.7374e+01
224	4.3285e-02	3.2934e-01	-1.2402e-03	-1.9629e-01	1.5683e+01
225	4.3286e-02	3.3934e-01	-1.1363e-03	-1.9633e-01	1.4168e+01
226	4.3287e-02	3.4934e-01	-1.0418e-03	-1.9636e-01	1.2809e+01
227	4.3287e-02	3.5934e-01	-9.5573e-04	-1.9639e-01	1.1589e+01
228	4.3288e-02	3.6934e-01	-8.7721e-04	-1.9642e-01	1.0493e+01
229	4.3288e-02	3.7934e-01	-8.0546e-04	-1.9644e-01	9.5082e+00
230	4.3288e-02	3.8934e-01	-7.3979e-04	-1.9646e-01	8.6242e+00
231	4.3289e-02	3.9934e-01	-6.7959e-04	-1.9648e-01	7.8312e+00
232	4.3289e-02	4.0934e-01	-6.2431e-04	-1.9650e-01	7.1198e+00
233	4.3290e-02	4.1934e-01	-5.7349e-04	-1.9651e-01	6.4816e+00
234	4.3290e-02	4.2934e-01	-5.2667e-04	-1.9653e-01	5.9079e+00
235	4.3290e-02	4.3934e-01	-4.8348e-04	-1.9654e-01	5.3906e+00
236	4.3290e-02	4.4934e-01	-4.4358e-04	-1.9655e-01	4.9220e+00
237	4.3291e-02	4.5934e-01	-4.0664e-04	-1.9656e-01	4.4946e+00
238	4.3291e-02	4.6934e-01	-3.7238e-04	-1.9657e-01	4.1020e+00
239	4.3291e-02	4.7934e-01	-3.4055e-04	-1.9658e-01	3.7385e+00
240	4.3291e-02	4.8934e-01	-3.1088e-04	-1.9659e-01	3.3997e+00
241	4.3292e-02	4.9934e-01	-2.8317e-04	-1.9659e-01	3.0823e+00
242	4.3292e-02	5.0934e-01	-2.5717e-04	-1.9660e-01	2.7836e+00
243	4.3292e-02	5.1934e-01	-2.3270e-04	-1.9660e-01	2.5021e+00
244	4.3292e-02	5.2934e-01	-2.0958e-04	-1.9661e-01	2.2368e+00
245	4.3292e-02	5.3934e-01	-1.8762e-04	-1.9661e-01	1.9870e+00
246	4.3292e-02	5.4934e-01	-1.6666e-04	-1.9662e-01	1.7513e+00
247	4.3292e-02	5.5934e-01	-1.4665e-04	-1.9662e-01	1.5287e+00
248	4.3293e-02	5.6934e-01	-1.2739e-04	-1.9662e-01	1.3191e+00
249	4.3293e-02	5.7934e-01	-1.0865e-04	-1.9662e-01	1.1186e+00
250	4.3293e-02	5.8934e-01	-9.1123e-05	-1.9663e-01	9.2957e-01
251	4.3293e-02	5.9934e-01	-7.4059e-05	-1.9663e-01	7.5332e-01
252	4.3293e-02	6.0934e-01	-5.5082e-05	-1.9663e-01	5.5057e-01
253	4.3293e-02	6.1934e-01	-4.1187e-05	-1.9663e-01	3.7997e-01
254	4.3293e-02	6.2934e-01	-3.1947e-05	-1.9662e-01	3.5271e-01
255	4.3293e-02	6.3934e-01	-1.5071e-05	-1.9665e-01	0.0000e+00
256	5.3086e-02	8.4827e-03	-4.0962e-02	-3.0106e-01	2.5120e+03
257	5.3145e-02	2.0128e-02	-3.3834e-02	-9.0103e-02	5.7456e+02
258	5.3139e-02	2.9431e-02	-3.1992e-02	-1.7760e-01	7.6450e+02
259	5.3134e-02	3.9384e-02	-2.8418e-02	-1.8312e-01	7.4253e+02
260	5.3172e-02	4.9494e-02	-2.2805e-02	-1.7064e-01	5.0539e+02
261	5.3188e-02	5.9426e-02	-2.0463e-02	-1.8068e-01	4.6169e+02
262	5.3195e-02	6.9408e-02	-1.8613e-02	-1.8402e-01	4.1002e+02
263	5.3207e-02	7.9406e-02	-1.6294e-02	-1.8489e-01	3.4643e+02
264	5.3217e-02	8.9393e-02	-1.4435e-02	-1.8690e-01	3.0299e+02
265	5.3225e-02	9.9385e-02	-1.2871e-02	-1.8827e-01	2.6835e+02
266	5.3232e-02	1.0938e-01	-1.1420e-02	-1.8935e-01	2.3882e+02
267	5.3239e-02	1.1937e-01	-1.0140e-02	-1.9031e-01	2.1362e+02
268	5.3244e-02	1.2937e-01	-9.0153e-03	-1.9109e-01	1.9144e+02
269	5.3249e-02	1.3937e-01	-8.0181e-03	-1.9178e-01	1.7167e+02
270	5.3254e-02	1.4936e-01	-7.1402e-03	-1.9239e-01	1.5361e+02
271	5.3258e-02	1.5936e-01	-6.3687e-03	-1.9292e-01	1.3694e+02
272	5.3261e-02	1.6936e-01	-5.6906e-03	-1.9338e-01	1.2165e+02
273	5.3264e-02	1.7936e-01	-5.0951e-03	-1.9380e-01	1.0774e+02
274	5.3267e-02	1.8935e-01	-4.5715e-03	-1.9416e-01	9.5242e+01
275	5.3269e-02	1.9935e-01	-4.1104e-03	-1.9447e-01	8.4133e+01
276	5.3271e-02	2.0935e-01	-3.7034e-03	-1.9474e-01	7.4351e+01
277	5.3273e-02	2.1935e-01	-3.3432e-03	-1.9497e-01	6.5797e+01
278	5.3275e-02	2.2935e-01	-3.0237e-03	-1.9517e-01	5.8348e+01
279	5.3277e-02	2.3935e-01	-2.7394e-03	-1.9535e-01	5.1865e+01
280	5.3278e-02	2.4935e-01	-2.4859e-03	-1.9550e-01	4.6217e+01
281	5.3279e-02	2.5935e-01	-2.2593e-03	-1.9563e-01	4.1283e+01
282	5.3281e-02	2.6935e-01	-2.0563e-03	-1.9574e-01	3.6958e+01
283	5.3282e-02	2.7935e-01	-1.8740e-03	-1.9584e-01	3.3152e+01
284	5.3283e-02	2.8934e-01	-1.7099e-03	-1.9593e-01	2.9790e+01
285	5.3283e-02	2.9934e-01	-1.5619e-03	-1.9600e-01	2.6808e+01
286	5.3284e-02	3.0934e-01	-1.4282e-03	-1.9607e-01	2.4155e+01
287	5.3285e-02	3.1934e-01	-1.3072e-03	-1.9613e-01	2.1788e+01
288	5.3286e-02	3.2934e-01	-1.1974e-03	-1.9618e-01	1.9670e+01
289	5.3286e-02	3.3934e-01	-1.0977e-03	-1.9623e-01	1.7772e+01
290	5.3287e-02	3.4934e-01	-1.0069e-03	-1.9627e-01	1.6069e+01
291	5.3287e-02	3.5934e-01	-9.2420e-04	-1.9631e-01	1.4539e+01
292	5.3288e-02	3.6934e-01	-8.4864e-04	-1.9634e-01	1.3164e+01
293	5.3288e-02	3.7934e-01	-7.7955e-04	-1.9637e-01	1.1929e+01
294	5.3289e-02	3.8934e-01	-7.1627e-04	-1.9640e-01	1.0821e+01
295	5.3289e-02	3.9934e-01	-6.5822e-04	-1.9642e-01	9.8265e+00
296	5.3289e-02	4.0934e-01	-6.0490e-04	-1.9645e-01	8.9351e+00
297	5.3290e-02	4.1934e-01	-5.5583e-04	-1.9647e-01	8.1355e+00
298	5.3290e-02	4.2934e-01	-5.1062e-04	-1.9648e-01	7.4171e+00
299	5.3290e-02	4.3934e-01	-4.6889e-04	-1.9650e-01	6.7695e+00
300	5.3290e-02	4.4934e-01	-4.3031e-04	-1.9651e-01	6.1828e+00
301	5.3291e-02	4.5934e-01	-3.9458e-04	-1.9653e-01	5.6476e+00
302	5.3291e-02	4.6934e-01	-3.6143e-04	-1.9654e-01	5.1556e+00
303	5.3291e-02	4.7934e-01	-3.3061e-04	-1.9655e-01	4.6998e+00
304	5.3291e-02	4.8934e-01	-3.0188e-04	-1.9656e-01	4.2745e+00
305	5.3292e-02	4.9934e-01	-2.7502e-04	-1.9657e-01	3.8757e+00
306	5.3292e-02	5.0934e-01	-2.4982e-04	-1.9657e-01	3.5003e+00
307	5.3292e-02	5.1934e-01	-2.2609e-04	-1.9658e-01	3.1461e+00
308	5.3292e-02	5.2934e-01	-2.0366e-04	-1.9659e-01	2.8121e+00
309	5.3292e-02	5.3934e-01	-1.8235e-04	-1.9659e-01	2.4981e+00
310	5.3292e-02	5.4934e-01	-1.6199e-04	-1.9660e-01	2.2018e+00
311	5.3293e-02	5.5934e-01	-1.4256e-04	-1.9660e-01	1.9213e+00
312	5.3293e-02	5.6934e-01	-1.2392e-04	-1.9660e-01	1.6585e+00
313	5.3293e-02	5.7934e-01	-1.0570e-04	-1.9661e-01	1.4073e+00
314	5.3293e-02	5.8934e-01	-8.8331e-05	-1.9661e-01	1.1650e+00
315	5.3293e-02	5.9934e-01	-7.2055e-05	-1.9661e-01	9.4970e-01
316	5.3293e-02	6.0934e-01	-5.4964e-05	-1.9661e-01	7.1166e-01
317	5.3293e-02	6.1934e-01	-3.8940e-05	-1.9662e-01	4.6120e-01
318	5.3293e-02	6.2934e-01	-2.4862e-05	-1.9660e-01	3.8191e-01
319	5.3294e-02	6.3934e-01	-9.8077e-06	-1.9663e-01	0.0000e+00
320	6.3142e-02	8.4192e-03	-3.6362e-02	-3.1287e-01	2.8519e+03
321	6.3148e-02	2.0115e-02	-3.0431e-02	-8.9465e-02	7.1239e+02
322	6.3158e-02	2.9423e-02	-2.5428e-02	-1.7465e-01	8.6462e+02
323	6.3177e-02	3.9413e-02	-2.1901e-02	-1.7827e-01	8.3309e+02
324	6.3193e-02	4.9513e-02	-2.0055e-02	-1.6836e-01	6.0460e+02
325	6.3197e-02	5.9430e-02	-1.8920e-02	-1.7928e-01	5.5073e+02
326	6.3205e-02	6.9418e-02	-1.6976e-02	-1.8176e-01	4.8077e+02
327	6.3215e-02	7.9416e-02	-1.4979e-02	-1.8295e-01	4.1003e+02
328	6.3223e-02	8.9400e-02	-1.3435e-02	-1.8537e-01	3.6201e+02
329	6.3230e-02	9.9392e-02	-1.2032e-02	-1.8683e-01	3.2118e+02
330	6.3236e-02	1.0939e-01	-1.0719e-02	-1.8805e-01	2.8639e+02
331	6.3242e-02	1.1938e-01	-9.5600e-03	-1.8917e-01	2.5666e+02
332	6.3247e-02	1.2937e-01	-8.5303e-03	-1.9007e-01	2.3007e+02
333	6.3251e-02	1.3937e-01	-7.6132e-03	-1.9088e-01	2.0614e+02
334	6.3255e-02	1.4937e-01	-6.8041e-03	-1.9160e-01	1.8422e+02
335	6.3259e-02	1.5936e-01	-6.0903e-03	-1.9222e-01	1.6403e+02
336	6.3262e-02	1.6936e-01	-5.4603e-03	-1.9277e-01	1.4559e+02
337	6.3265e-02	1.7936e-01	-4.9048e-03	-1.9326e-01	1.2889e+02
338	6.3268e-02	1.8936e-01	-4.4142e-03	-1.9368e-01	1.1394e+02
339	6.3270e-02	1.9935e-01	-3.9800e-03	-1.9405e-01	1.0069e+02
340	6.3272e-02	2.0935e-01	-3.5949e-03	-1.9437e-01	8.9055e+01
341	6.3274e-02	2.1935e-01	-3.2526e-03	-1.9464e-01	7.8883e+01
342	6.3276e-02	2.2935e-01	-2.9476e-03	-1.9488e-01	7.0020e+01
343	6.3277e-02	2.3935e-01	-2.6753e-03	-1.9509e-01	6.2300e+01
344	6.3278e-02	2.4935e-01	-2.4317e-03	-1.9526e-01	5.5565e+01
345	6.3280e-02	2.5935e-01	-2.2132e-03	-1.9542e-01	4.9673e+01
346	6.3281e-02	2.6935e-01	-2.0170e-03	-1.9555e-01	4.4501e+01
347	6.3282e-02	2.7935e-01	-1.8404e-03	-1.9567e-01	3.9942e+01
348	6.3283e-02	2.8935e-01	-1.6812e-03	-1.9577e-01	3.5910e+01
349	6.3284e-02	2.9934e-01	-1.5373e-03	-1.9586e-01	3.2331e+01
350	6.3284e-02	3.0934e-01	-1.4071e-03	-1.9595e-01	2.9143e+01
351	6.3285e-02	3.1934e-01	-1.2890e-03	-1.9602e-01	2.6297e+01
352	6.3286e-02	3.2934e-01	-1.1818e-03	-1.9608e-01	2.3750e+01
353	6.3286e-02	3.3934e-01	-1.0843e-03	-1.9614e-01	2.1465e+01
354	6.3287e-02	3.4934e-01	-9.9544e-04	-1.9619e-01	1.9413e+01
355	6.3287e-02	3.5934e-01	-9.1433e-04	-1.9623e-01	1.7569e+01
356	6.3288e-02	3.6934e-01	-8.4019e-04	-1.9627e-01	1.5912e+01
357	6.3288e-02	3.7934e-01	-7.7231e-04	-1.9631e-01	1.4423e+01
358	6.3289e-02	3.8934e-01	-7.1007e-04	-1.9634e-01	1.3086e+01
359	6.3289e-02	3.9934e-01	-6.5291e-04	-1.9637e-01	1.1887e+01
360	6.3289e-02	4.0934e-01	-6.0035e-04	-1.9639e-01	1.0811e+01
361	6.3290e-02	4.1934e-01	-5.5194e-04	-1.9642e-01	9.8457e+00
362	6.3290e-02	4.2934e-01	-5.0728e-04	-1.9644e-01	8.9784e+00
363	6.3290e-02	4.3934e-01	-4.6602e-04	-1.9646e-01	8.1964e+00
364	6.3291e-02	4.4934e-01	-4.2784e-04	-1.9648e-01	7.4876e+00
365	6.3291e-02	4.5934e-01	-3.9246e-04	-1.9649e-01	6.8407e+00
366	6.3291e-02	4.6934e-01	-3.5961e-04	-1.9651e-01	6.2459e+00
367	6.3291e-02	4.7934e-01	-3.2904e-04	-1.9652e-01	5.6945e+00
368	6.3291e-02	4.8934e-01	-3.0052e-04	-1.9653e-01	5.1798e+00
369	6.3292e-02	4.9934e-01	-2.7385e-04	-1.9654e-01	4.6968e+00
370	6.3292e-02	5.0934e-01	-2.4882e-04	-1.9655e-01	4.2422e+00
371	6.3292e-02	5.1934e-01	-2.2522e-04	-1.9656e-01	3.8133e+00
372	6.3292e-02	5.2934e-01	-2.0292e-04	-1.9656e-01	3.4086e+00
373	6.3292e-02	5.3934e-01	-1.8173e-04	-1.9657e-01	3.0282e+00
374	6.3292e-02	5.4934e-01	-1.6148e-04	-1.9658e-01	2.6697e+00
375	6.3293e-02	5.5934e-01	-1.4211e-04	-1.9658e-01	2.3296e+00
376	6.3293e-02	5.6934e-01	-1.2357e-04	-1.9658e-01	2.0111e+00
377	6.3293e-02	5.7934e-01	-1.0557e-04	-1.9659e-01	1.7086e+00
378	6.3293e-02	5.8934e-01	-8.8097e-05	-1.9659e-01	1.4136e+00
379	6.3293e-02	5.9934e-01	-7.1392e-05	-1.9659e-01	1.1499e+00
380	6.3293e-02	6.0934e-01	-5.4975e-05	-1.9660e-01	8.6984e-01
381	6.3293e-02	6.1934e-01	-3.9481e-05	-1.9661e-01	5.7088e-01
382	6.3293e-02	6.2934e-01	-2.4115e-05	-1.9658e-01	4.6751e-01
383	6.3294e-02	6.3934e-01	-9.0418e-06	-1.9662e-01	0.0000e+00
384	7.3171e-02	8.3459e-03	-2.8734e-02	-3.2229e-01	3.1226e+03
385	7.3182e-02	2.0117e-02	-2.3358e-02	-8.5835e-02	8.0604e+02
386	7.3198e-02	2.9437e-02	-1.9666e-02	-1.7174e-01	9.5460e+02
387	7.3203e-02	3.9424e-02	-1.8919e-02	-1.7690e-01	9.4017e+02
388	7.3203e-02	4.9516e-02	-1.8410e-02	-1.6753e-01	7.0256e+02
389	7.3207e-02	5.9436e-02	-1.6992e-02	-1.7759e-01	6.2750e+02
390	7.3216e-02	6.9428e-02	-1.5164e-02	-1.7978e-01	5.4591e+02
391	7.3223e-02	7.9424e-02	-1.3661e-02	-1.8142e-01	4.7194e+02
392	7.3229e-02	8.9407e-02	-1.2384e-02	-1.8402e-01	4.1919e+02
393	7.3235e-02	9.9399e-02	-1.1132e-02	-1.8553e-01	3.7257e+02
394	7.3240e-02	1.0939e-01	-9.9730e-03	-1.8689e-01	3.3292e+02
395	7.3245e-02	1.1938e-01	-8.9401e-03	-1.8813e-01	2.9865e+02
396	7.3250e-02	1.2938e-01	-8.0097e-03	-1.8914e-01	2.6762e+02
397	7.3254e-02	1.3937e-01	-7.1787e-03	-1.9006e-01	2.3953e+02
398	7.3257e-02	1.4937e-01	-6.4424e-03	-1.9087e-01	2.1378e+02
399	7.3261e-02	1.5937e-01	-5.7890e-03	-1.9158e-01	1.9013e+02
400	7.3264e-02	1.6936e-01	-5.2097e-03	-1.9220e-01	1.6864e+02
401	7.3266e-02	1.7936e-01	-4.6963e-03	-1.9275e-01	1.4927e+02
402	7.3269e-02	1.8936e-01	-4.2403e-03	-1.9323e-01	1.3199e+02
403	7.3271e-02	1.9936e-01	-3.8344e-03	-1.9365e-01	1.1672e+02
404	7.3273e-02	2.0935e-01	-3.4725e-03	-1.9402e-01	1.0332e+02
405	7.3275e-02	2.1935e-01	-3.1493e-03	-1.9433e-01	9.1606e+01
406	7.3276e-02	2.2935e-01	-2.8599e-03	-1.9460e-01	8.1398e+01
407	7.3278e-02	2.3935e-01	-2.6006e-03	-1.9483e-01	7.2494e+01
408	7.3279e-02	2.4935e-01	-2.3677e-03	-1.9504e-01	6.4714e+01
409	7.3280e-02	2.5935e-01	-2.1582e-03	-1.9521e-01	5.7897e+01
410	7.3281e-02	2.6935e-01	-1.9695e-03	-1.9537e-01	5.1903e+01
411	7.3282e-02	2.7935e-01	-1.7993e-03	-1.9551e-01	4.6613e+01
412	7.3283e-02	2.8935e-01	-1.6455e-03	-1.9562e-01	4.1928e+01
413	7.3284e-02	2.9935e-01	-1.5062e-03	-1.9573e-01	3.7765e+01
414	7.3285e-02	3.0935e-01	-1.3799e-03	-1.9582e-01	3.4055e+01
415	7.3285e-02	3.1934e-01	-1.2653e-03	-1.9591e-01	3.0739e+01
416	7.3286e-02	3.2934e-01	-1.1610e-03	-1.9598e-01	2.7768e+01
417	7.3286e-02	3.3934e-01	-1.0661e-03	-1.9604e-01	2.5103e+01
418	7.3287e-02	3.4934e-01	-9.7940e-04	-1.9610e-01	2.2709e+01
419	7.3287e-02	3.5934e-01	-9.0022e-04	-1.9615e-01	2.0556e+01
420	7.3288e-02	3.6934e-01	-8.2775e-04	-1.9620e-01	1.8620e+01
421	7.3288e-02	3.7934e-01	-7.6132e-04	-1.9624e-01	1.6881e+01
422	7.3289e-02	3.8934e-01	-7.0034e-04	-1.9628e-01	1.5319e+01
423	7.3289e-02	3.9934e-01	-6.4428e-04	-1.9631e-01	1.3917e+01
424	7.3289e-02	4.0934e-01	-5.9267e-04	-1.9634e-01	1.2659e+01
425	7.3290e-02	4.1934e-01	-5.4509e-04	-1.9637e-01	1.1531e+01
426	7.3290e-02	4.2934e-01	-5.0115e-04	-1.9640e-01	1.0517e+01
427	7.3290e-02	4.3934e-01	-4.6053e-04	-1.9642e-01	9.6027e+00
428	7.3291e-02	4.4934e-01	-4.2292e-04	-1.9644e-01	8.7736e+00
429	7.3291e-02	4.5934e-01	-3.8804e-04	-1.9646e-01	8.0167e+00
430	7.3291e-02	4.6934e-01	-3.5563e-04	-1.9648e-01	7.3206e+00
431	7.3291e-02	4.7934e-01	-3.2547e-04	-1.9649e-01	6.6751e+00
432	7.3291e-02	4.8934e-01	-2.9732e-04	-1.9650e-01	6.0725e+00
433	7.3292e-02	4.9934e-01	-2.7099e-04	-1.9652e-01	5.5069e+00
434	7.3292e-02	5.0934e-01	-2.4626e-04	-1.9653e-01	4.9746e+00
435	7.3292e-02	5.1934e-01	-2.2295e-04	-1.9654e-01	4.4722e+00
436	7.3292e-02	5.2934e-01	-2.0091e-04	-1.9654e-01	3.9979e+00
437	7.3292e-02	5.3934e-01	-1.7996e-04	-1.9655e-01	3.5521e+00
438	7.3292e-02	5.4934e-01	-1.5996e-04	-1.9656e-01	3.1323e+00
439	7.3293e-02	5.5934e-01	-1.4078e-04	-1.9656e-01	2.7336e+00
440	7.3293e-02	5.6934e-01	-1.2239e-04	-1.9657e-01	2.3593e+00
441	7.3293e-02	5.7934e-01	-1.0464e-04	-1.9657e-01	2.0052e+00
442	7.3293e-02	5.8934e-01	-8.7459e-05	-1.9658e-01	1.6605e+00
443	7.3293e-02	5.9934e-01	-7.0649e-05	-1.9658e-01	1.3496e+00
444	7.3293e-02	6.0934e-01	-5.4083e-05	-1.9658e-01	1.0203e+00
445	7.3293e-02	6.1934e-01	-3.9171e-05	-1.9659e-01	6.7392e-01
446	7.3293e-02	6.2934e-01	-2.4410e-05	-1.9656e-01	5.5776e-01
447	7.3294e-02	6.3934e-01	-9.3163e-06	-1.9661e-01	0.0000e+00
448	8.3206e-02	8.3054e-03	-2.2542e-02	-3.2819e-01	3.3505e+03
449	8.3213e-02	2.0125e-02	-1.9041e-02	-8.3388e-02	9.0545e+02
450	8.3218e-02	2.9440e-02	-1.7141e-02	-1.7098e-01	1.0530e+03
451	8.3215e-02	3.9422e-02	-1.6916e-02	-1.7658e-01	1.0384e+03
452	8.3216e-02	4.9518e-02	-1.6062e-02	-1.6640e-01	7.8046e+02
453	8.3221e-02	5.9443e-02	-1.4655e-02	-1.7594e-01	6.9186e+02
454	8.3226e-02	6.9435e-02	-1.3374e-02	-1.7836e-01	6.0690e+02
455	8.3231e-02	7.9429e-02	-1.2289e-02	-1.8024e-01	5.3032e+02
456	8.3236e-02	8.9412e-02	-1.1201e-02	-1.8284e-01	4.7251e+02
457	8.3241e-02	9.9404e-02	-1.0123e-02	-1.8439e-01	4.2088e+02
458	8.3245e-02	1.0940e-01	-9.1354e-03	-1.8587e-01	3.7681e+02
459	8.3249e-02	1.1939e-01	-8.2355e-03	-1.8721e-01	3.3816e+02
460	8.3253e-02	1.2938e-01	-7.4160e-03	-1.8832e-01	3.0289e+02
461	8.3256e-02	1.3938e-01	-6.6815e-03	-1.8932e-01	2.7084e+02
462	8.3260e-02	1.4937e-01	-6.0257e-03	-1.9021e-01	2.4146e+02
463	8.3263e-02	1.5937e-01	-5.4394e-03	-1.9099e-01	2.1456e+02
464	8.3265e-02	1.6937e-01	-4.9165e-03	-1.9168e-01	1.9023e+02
465	8.3268e-02	1.7936e-01	-4.4498e-03	-1.9229e-01	1.6840e+02
466	8.3270e-02	1.8936e-01	-4.0324e-03	-1.9282e-01	1.4897e+02
467	8.3272e-02	1.9936e-01	-3.6584e-03	-1.9328e-01	1.3185e+02
468	8.3274e-02	2.0936e-01	-3.3230e-03	-1.9369e-01	1.1683e+02
469	8.3275e-02	2.1935e-01	-3.0215e-03	-1.9403e-01	1.0370e+02
470	8.3277e-02	2.2935e-01	-2.7504e-03	-1.9433e-01	9.2248e+01
471	8.3278e-02	2.3935e-01	-2.5063e-03	-1.9459e-01	8.2241e+01
472	8.3279e-02	2.4935e-01	-2.2861e-03	-1.9482e-01	7.3483e+01
473	8.3280e-02	2.5935e-01	-2.0875e-03	-1.9502e-01	6.5796e+01
474	8.3281e-02	2.6935e-01	-1.9079e-03	-1.9519e-01	5.9026e+01
475	8.3282e-02	2.7935e-01	-1.7455e-03	-1.9535e-01	5.3042e+01
476	8.3283e-02	2.8935e-01	-1.5984e-03	-1.9548e-01	4.7736e+01
477	8.3284e-02	2.9935e-01	-1.4649e-03	-1.9560e-01	4.3016e+01
478	8.3285e-02	3.0935e-01	-1.3436e-03	-1.9570e-01	3.8805e+01
479	8.3285e-02	3.1935e-01	-1.2332e-03	-1.9580e-01	3.5038e+01
480	8.3286e-02	3.2935e-01	-1.1327e-03	-1.9588e-01	3.1662e+01
481	8.3287e-02	3.3934e-01	-1.0410e-03	-1.9595e-01	2.8630e+01
482	8.3287e-02	3.4934e-01	-9.5723e-04	-1.9602e-01	2.5905e+01
483	8.3288e-02	3.5934e-01	-8.8055e-04	-1.9608e-01	2.3454e+01
484	8.3288e-02	3.6934e-01	-8.1027e-04	-1.9613e-01	2.1250e+01
485	8.3288e-02	3.7934e-01	-7.4577e-04	-1.9618e-01	1.9269e+01
486	8.3289e-02	3.8934e-01	-6.8648e-04	-1.9622e-01	1.7490e+01
487	8.3289e-02	3.9934e-01	-6.3191e-04	-1.9626e-01	1.5893e+01
488	8.3289e-02	4.0934e-01	-5.8160e-04	-1.9630e-01	1.4460e+01
489	8.3290e-02	4.1934e-01	-5.3517e-04	-1.9633e-01	1.3175e+01
490	8.3290e-02	4.2934e-01	-4.9226e-04	-1.9636e-01	1.2019e+01
491	8.3290e-02	4.3934e-01	-4.5254e-04	-1.9638e-01	1.0976e+01