variables="k","x","y","vx","vy","pressure"
zone i=8064 j=1
0	1.1032e-02	4.1149e-02	-4.3189e-02	1.0887e-01	5.1965e+03
1	1.5610e-02	6.9357e-02	5.7899e-02	-1.5210e-02	4.8242e+03
2	4.5518e-03	2.5457e-02	1.0785e-02	1.6286e-02	5.4957e+03
3	2.2716e-02	4.1898e-02	-1.3184e-01	8.3019e-02	5.0055e+03
4	3.2745e-02	1.3107e-01	1.4137e-01	8.9108e-02	3.8288e+03
5	1.0114e-03	1.0062e-01	3.3056e-01	7.0194e-02	4.3367e+03
6	1.3336e-02	1.0469e-01	-2.1732e-03	1.5258e-01	4.6997e+03
7	2.3067e-02	7.2967e-02	-1.7154e-01	8.2816e-02	4.8361e+03
8	4.6046e-05	1.2511e-01	-1.7650e-02	1.5099e-01	4.4120e+03
9	2.1129e-02	1.3408e-01	-1.3693e-02	8.0744e-03	4.2000e+03
10	1.5034e-02	1.5612e-01	9.2118e-04	1.3979e-01	4.0369e+03
11	1.5145e-03	1.8226e-01	-6.1992e-02	2.0764e-01	3.8123e+03
12	3.5703e-02	1.6833e-01	8.0872e-02	1.6195e-01	3.7957e+03
13	5.1008e-03	2.0686e-01	3.2716e-03	1.2454e-01	3.4665e+03
14	3.3033e-02	1.8897e-01	1.6113e-01	-1.2998e-02	3.5524e+03
15	2.1276e-02	2.1099e-01	-9.4383e-02	1.1021e-02	3.5067e+03
16	9.0694e-03	2.1524e-01	6.1882e-02	6.7169e-02	3.3200e+03
17	4.2685e-03	2.5467e-01	-2.5006e-03	1.9974e-01	3.2167e+03
18	2.5424e-02	2.1530e-01	1.8161e-01	1.5546e-01	3.4757e+03
19	1.1966e-02	2.3473e-01	-4.3606e-02	1.4041e-01	3.0675e+03
20	1.5432e-02	2.6595e-01	1.8758e-01	1.4340e-01	3.0881e+03
21	2.6814e-02	2.7289e-01	-1.2249e-01	3.5143e-02	2.8004e+03
22	5.1317e-02	2.3793e-01	-1.0471e-01	-1.1241e-01	2.9137e+03
23	5.1458e-02	2.9828e-01	1.3749e-01	3.5422e-03	2.8141e+03
24	3.0783e-02	3.1231e-01	-1.0747e-02	1.1536e-01	2.6645e+03
25	1.3247e-02	3.2157e-01	-2.7939e-02	2.1343e-02	3.0146e+03
26	3.8622e-02	3.2550e-01	1.7183e-01	3.1443e-03	2.6264e+03
27	3.0948e-02	2.8493e-01	5.9949e-03	-4.0696e-02	2.9277e+03
28	1.6847e-02	3.3584e-01	4.7034e-02	2.0482e-01	2.8419e+03
29	1.2145e-02	3.4624e-01	-2.4780e-02	1.0468e-01	2.6031e+03
30	-1.8325e-04	4.1608e-01	3.7184e-01	3.0841e-01	2.1152e+03
31	3.6977e-02	3.9669e-01	1.5078e-01	-3.2921e-02	2.3983e+03
32	5.5013e-03	3.9428e-01	-2.5607e-01	8.8889e-02	2.3973e+03
33	4.0287e-02	4.0177e-01	-8.2321e-02	-4.5907e-02	2.1507e+03
34	1.6434e-02	3.9540e-01	-5.3585e-02	2.1962e-01	2.3267e+03
35	1.4573e-04	4.6374e-01	2.8897e-02	2.1933e-01	2.3470e+03
36	8.1886e-03	4.8266e-01	1.0634e-01	4.4412e-01	1.3482e+03
37	2.8149e-02	4.2756e-01	1.2326e-01	6.8102e-02	2.0404e+03
38	2.4689e-02	4.6645e-01	-3.4086e-02	1.7584e-01	1.6042e+03
39	2.8629e-03	4.9595e-01	2.1254e-02	2.7658e-01	1.6010e+03
40	2.4644e-02	4.4336e-01	-2.7973e-03	6.5236e-02	1.9016e+03
41	2.0681e-02	4.9083e-01	1.0852e-01	1.4905e-01	1.4018e+03
42	8.4482e-03	5.0254e-01	1.5808e-01	2.0587e-01	1.0904e+03
43	5.2009e-02	5.3032e-01	1.3581e-01	-1.1687e-01	7.6635e+02
44	3.3175e-03	5.5834e-01	-1.7506e-01	1.0865e-01	7.9283e+02
45	1.3807e-02	5.3227e-01	1.0649e-01	9.9422e-02	9.9073e+02
46	2.6481e-02	5.2815e-01	1.9611e-01	4.5105e-02	1.0607e+03
47	9.3198e-03	5.4117e-01	-1.3600e-02	1.9054e-01	7.7427e+02
48	5.6123e-03	5.2577e-01	-1.5261e-01	4.7839e-02	1.3501e+03
49	2.1819e-02	5.6738e-01	3.1679e-02	1.0274e-01	5.4620e+02
50	2.9378e-02	5.3846e-01	2.8415e-02	-5.4245e-02	6.5220e+02
51	1.7826e-02	6.0125e-01	1.6603e-01	6.3304e-02	0.0000e+00
52	2.2225e-02	5.8393e-01	1.0674e-01	1.2029e-01	4.3456e+02
53	5.2664e-02	5.9997e-01	1.0980e-01	-3.0745e-01	0.0000e+00
54	4.1601e-02	5.7893e-01	1.0706e-01	-1.4971e-01	4.3438e+02
55	3.7385e-02	6.2247e-01	1.6437e-01	-2.1566e-01	0.0000e+00
56	4.0383e-02	5.9320e-01	9.4355e-02	-4.2336e-01	4.1284e+02
57	5.8396e-02	6.0157e-01	3.2342e-01	-1.8875e-01	0.0000e+00
58	7.9224e-03	6.0049e-01	9.8103e-02	-2.9459e-01	0.0000e+00
59	6.2728e-02	5.1692e-01	1.4831e-01	-3.2725e-01	9.3349e+02
60	2.4850e-02	6.0331e-01	2.3454e-01	-6.8978e-02	0.0000e+00
61	4.8347e-02	5.6253e-01	7.0956e-02	-3.7947e-01	6.6967e+02
62	6.1623e-02	5.6456e-01	2.9843e-01	-2.5697e-01	6.2297e+02
63	4.6332e-02	5.7944e-01	3.3129e-01	-4.1498e-01	3.1523e+02
64	9.4057e-03	-9.3572e-06	-3.8233e-02	9.8665e-03	5.8037e+03
65	-3.4929e-05	1.2785e-02	-1.1110e-01	-1.3186e-01	5.2007e+03
66	3.6741e-02	7.6877e-03	-1.1299e-01	-6.7881e-02	5.3225e+03
67	1.4657e-02	8.9888e-02	1.6929e-01	1.7035e-01	4.7550e+03
68	4.3500e-02	1.1162e-01	7.1627e-02	-2.9562e-02	4.3685e+03
69	3.4786e-02	5.7879e-02	-5.5684e-02	-9.1119e-02	4.9107e+03
70	2.5778e-03	8.5249e-02	1.5598e-01	1.4983e-01	4.8283e+03
71	3.3182e-02	9.8752e-02	-2.3270e-02	1.2156e-01	4.4688e+03
72	1.5211e-02	1.1627e-01	-1.3814e-01	2.5792e-01	4.4810e+03
73	1.0808e-02	1.4335e-01	1.1074e-02	1.9209e-01	4.2043e+03
74	9.1359e-03	1.5945e-01	-8.5502e-02	1.5471e-01	3.9980e+03
75	2.9776e-02	1.2065e-01	2.0201e-02	9.2769e-02	4.0606e+03
76	6.7989e-05	1.6894e-01	-1.7921e-01	2.8991e-02	3.8754e+03
77	1.6323e-02	1.7089e-01	3.6725e-02	1.8029e-01	3.7934e+03
78	2.0160e-02	1.8497e-01	7.2577e-02	1.2843e-01	3.7170e+03
79	2.9407e-02	2.0016e-01	-1.0836e-01	1.4363e-01	3.2367e+03
80	2.2077e-02	1.4863e-01	7.5555e-03	-1.1748e-02	4.0797e+03
81	1.9798e-02	1.6355e-01	2.4336e-02	2.6468e-02	3.9290e+03
82	1.4535e-02	1.7734e-01	-1.5351e-01	7.1510e-02	3.6819e+03
83	1.7470e-02	1.8742e-01	1.1779e-01	5.4554e-03	3.6723e+03
84	1.3072e-03	1.9495e-01	7.9122e-02	1.2731e-01	3.8183e+03
85	1.8828e-02	2.7492e-01	-2.6189e-01	1.5179e-01	2.8232e+03
86	1.9637e-03	3.1752e-01	3.2699e-01	1.6330e-01	2.7758e+03
87	4.6814e-02	2.1772e-01	-6.6289e-02	6.1595e-02	3.1175e+03
88	1.7987e-02	2.8690e-01	1.1456e-01	5.3738e-02	3.2222e+03
89	2.4763e-02	2.9486e-01	3.2218e-03	-7.3894e-02	3.0505e+03
90	1.8779e-02	3.1932e-01	-2.0114e-02	1.8738e-01	3.0487e+03
91	5.4483e-02	3.0927e-01	6.8376e-02	-4.8987e-02	2.6138e+03
92	5.1226e-03	3.4554e-01	-7.4297e-02	4.3792e-02	2.6091e+03
93	3.1663e-02	3.0763e-01	-2.1739e-03	-4.8243e-02	2.6499e+03
94	2.3583e-02	3.2173e-01	4.6921e-02	-2.8613e-02	2.8934e+03
95	4.9884e-02	3.3630e-01	3.1059e-02	4.7986e-02	2.3427e+03
96	1.0558e-02	3.3920e-01	7.9137e-02	8.4760e-02	2.8675e+03
97	1.0400e-02	3.7127e-01	-1.7854e-02	1.1630e-01	2.3514e+03
98	2.3834e-02	3.8770e-01	-4.0533e-03	-7.1815e-03	2.4081e+03
99	1.8416e-02	4.1322e-01	-4.5532e-02	7.1603e-02	2.3320e+03
100	1.2226e-02	4.1785e-01	1.2993e-01	1.3119e-01	2.4310e+03
101	3.0139e-02	3.5889e-01	-1.1639e-01	-9.0373e-03	2.4046e+03
102	1.5376e-02	4.2776e-01	5.4728e-02	9.9052e-02	2.2564e+03
103	1.8546e-03	4.4427e-01	8.8757e-04	1.9977e-01	2.1068e+03
104	3.0775e-02	4.1020e-01	9.8096e-02	-4.4726e-03	2.1169e+03
105	1.9003e-02	4.2626e-01	-3.7581e-02	-6.6933e-03	2.2561e+03
106	1.0758e-02	4.5042e-01	4.6981e-02	8.7493e-02	1.9240e+03
107	2.0759e-02	4.5922e-01	2.9889e-02	5.1735e-02	1.7894e+03
108	2.0540e-02	5.2187e-01	2.4285e-01	2.1378e-01	1.1527e+03
109	2.5932e-02	4.4225e-01	-7.3158e-02	-3.2736e-03	1.8375e+03
110	4.9285e-02	5.2421e-01	8.0865e-02	8.8875e-03	8.3780e+02
111	2.8492e-02	5.4697e-01	1.9414e-02	1.7457e-01	6.6144e+02
112	3.3444e-02	5.2051e-01	1.2093e-01	-2.2957e-01	9.7437e+02
113	2.4440e-02	5.0564e-01	-2.0907e-01	1.5090e-01	9.0198e+02
114	3.7310e-02	4.9940e-01	-8.9871e-03	-1.9427e-01	1.2394e+03
115	1.5953e-02	5.5321e-01	5.3148e-02	1.2926e-02	6.8884e+02
116	3.6116e-03	5.7469e-01	-5.5098e-04	8.7146e-03	2.1136e+02
117	3.2637e-02	5.9222e-01	2.3985e-01	-1.7064e-02	1.5663e+01
118	8.5936e-03	5.3906e-01	-5.3207e-03	7.7186e-02	8.7077e+02
119	8.6369e-03	6.3338e-01	1.6347e-01	-3.0743e-01	0.0000e+00
120	3.7654e-02	5.8475e-01	2.1622e-01	-1.1784e-01	2.0788e+02
121	8.0020e-03	5.8712e-01	-1.7844e-02	-3.7527e-03	5.3990e+02
122	2.5691e-02	5.7914e-01	2.6546e-02	-5.3434e-02	2.1679e+02
123	1.4293e-02	5.9697e-01	1.3836e-01	-8.0163e-02	1.7857e+02
124	4.2438e-02	5.6136e-01	-7.2899e-03	-1.2692e-01	4.0894e+02
125	4.2554e-02	6.0041e-01	2.2463e-01	-2.7036e-01	0.0000e+00
126	1.1158e-01	5.6533e-01	3.0574e-01	-3.1303e-01	3.1082e+02
127	9.2688e-02	5.7920e-01	2.9457e-01	-3.3376e-01	2.0711e+02
128	3.3293e-02	6.1888e-02	1.0959e-01	2.5887e-02	4.8560e+03
129	3.8984e-03	5.5112e-02	1.7335e-02	-9.3105e-03	5.0763e+03
130	7.9381e-03	4.5937e-02	1.5775e-01	2.3791e-01	5.1940e+03
131	1.2558e-02	1.0783e-02	1.2948e-01	1.4858e-01	5.4325e+03
132	2.7191e-02	3.6105e-02	3.7111e-02	-8.2067e-02	4.9267e+03
133	2.9853e-03	6.6912e-02	-2.2668e-01	2.2668e-02	5.0355e+03
134	3.1232e-02	9.0383e-02	1.2646e-01	7.6139e-02	4.5332e+03
135	3.8668e-02	6.9091e-02	9.2094e-02	9.1518e-02	4.6717e+03
136	4.0758e-03	1.1259e-01	3.8685e-02	8.1375e-02	4.2805e+03
137	5.0465e-03	1.3735e-01	-1.0325e-02	9.3916e-02	4.1326e+03
138	4.2797e-03	1.5027e-01	9.6361e-02	7.2181e-03	4.1197e+03
139	2.0640e-02	1.2145e-01	1.6183e-01	-6.0019e-03	4.4126e+03
140	4.2027e-02	1.2942e-01	7.3555e-02	1.8119e-01	4.0526e+03
141	1.2337e-02	1.2858e-01	6.0264e-02	-5.3200e-02	4.4966e+03
142	2.5179e-02	1.3669e-01	-1.7669e-01	4.7750e-02	4.0025e+03
143	4.6242e-02	1.4468e-01	-5.5773e-02	9.0532e-02	4.0986e+03
144	3.6111e-02	1.4597e-01	6.7743e-02	6.8294e-02	3.9348e+03
145	4.9821e-02	1.7478e-01	1.0353e-01	-1.1296e-02	3.5858e+03
146	3.4247e-02	2.0475e-01	2.6203e-02	-4.5493e-02	3.1567e+03
147	2.5345e-02	2.3161e-01	-3.4829e-02	1.4297e-01	3.0557e+03
148	8.4205e-03	2.9530e-01	3.4721e-02	2.3733e-01	2.8917e+03
149	6.1551e-02	2.4627e-01	1.7527e-01	-2.1540e-01	2.9918e+03
150	3.7951e-02	2.2110e-01	1.0067e-01	2.2497e-01	3.3297e+03
151	4.7407e-02	2.5825e-01	1.5827e-01	-4.8864e-02	3.0192e+03
152	4.1988e-03	3.0463e-01	-9.9320e-02	2.3455e-01	2.9085e+03
153	5.2493e-03	3.2971e-01	6.4025e-02	2.3975e-01	2.6962e+03
154	1.4057e-02	3.0671e-01	3.8350e-02	2.6528e-01	2.8680e+03
155	8.0931e-04	2.7378e-01	-1.3448e-01	1.6087e-01	2.7989e+03
156	3.5164e-02	2.7322e-01	2.0649e-01	-1.7648e-02	2.8366e+03
157	3.8966e-03	2.8785e-01	-2.4250e-02	2.6114e-01	3.0767e+03
158	1.8301e-02	3.0397e-01	1.2207e-01	1.2856e-02	2.7393e+03
159	8.0809e-02	2.7317e-01	9.6739e-02	-1.5759e-01	2.7046e+03
160	4.9623e-02	3.0494e-01	-7.8972e-02	-1.3746e-01	2.7518e+03
161	9.2079e-04	3.6006e-01	1.3839e-01	2.2635e-01	2.5384e+03
162	2.3188e-03	3.7817e-01	1.1194e-01	2.5222e-01	2.1763e+03
163	2.2714e-02	3.5390e-01	2.1552e-02	1.0803e-01	2.4748e+03
164	-2.5886e-05	4.3223e-01	1.3973e-01	3.4615e-01	1.9378e+03
165	1.9655e-02	4.0355e-01	8.3458e-02	9.7887e-02	2.1941e+03
166	2.4696e-03	4.0499e-01	1.2409e-01	4.3095e-01	1.8975e+03
167	8.8714e-03	3.8716e-01	1.2424e-02	3.3318e-01	2.4526e+03
168	1.4037e-02	3.7510e-01	-4.8805e-02	4.0360e-02	2.2707e+03
169	2.8820e-02	3.8075e-01	-7.9755e-02	-1.8567e-02	2.2288e+03
170	3.5301e-02	4.3697e-01	1.7473e-01	1.1662e-02	1.9417e+03
171	4.3320e-02	4.3363e-01	6.4377e-02	-1.3149e-01	2.0319e+03
172	3.7333e-02	4.1452e-01	-7.0865e-02	-4.9296e-02	1.9582e+03
173	6.7246e-02	4.1197e-01	1.1496e-01	-8.3481e-02	1.8392e+03
174	1.1896e-02	4.5835e-01	-2.7740e-02	2.0283e-01	1.8538e+03
175	3.4180e-02	5.1138e-01	1.8614e-01	-7.6952e-02	1.1564e+03
176	5.1990e-03	5.1634e-01	-5.2131e-02	1.1807e-01	1.5762e+03
177	2.1214e-02	5.1169e-01	2.7286e-01	1.9131e-01	9.6382e+02
178	9.4662e-03	5.1082e-01	9.1566e-02	3.3189e-01	9.0541e+02
179	1.9205e-02	4.7729e-01	-8.2699e-02	-6.5325e-02	1.3284e+03
180	2.8512e-02	4.9506e-01	-1.6513e-02	4.3052e-02	1.2819e+03
181	5.3088e-02	4.8950e-01	7.8143e-02	-1.7907e-01	1.1932e+03
182	4.2235e-02	5.0522e-01	-1.0635e-02	-1.4861e-01	1.2321e+03
183	2.7077e-02	5.6041e-01	5.8275e-02	4.4653e-02	4.6681e+02
184	5.3023e-02	5.4278e-01	1.3856e-01	-6.5657e-02	6.8087e+02
185	7.0432e-03	5.5957e-01	1.4681e-01	-3.6854e-04	6.4858e+02
186	2.2557e-02	5.6393e-01	-1.7128e-02	3.6327e-02	5.4637e+02
187	5.1557e-02	6.0706e-01	2.8932e-01	1.0961e-02	0.0000e+00
188	6.0855e-03	5.7956e-01	1.8849e-01	3.0959e-02	2.6509e+02
189	5.7719e-02	5.8065e-01	-1.9981e-02	-3.7930e-01	3.8066e+02
190	1.6961e-02	6.0147e-01	2.4217e-01	-2.4584e-01	0.0000e+00
191	8.4987e-02	5.7508e-01	3.2294e-01	-1.1845e-01	3.8939e+02
192	2.8094e-02	7.4669e-03	8.2696e-02	-1.8363e-03	5.3303e+03
193	4.8899e-02	1.8496e-02	4.7565e-03	-5.5213e-04	5.1929e+03
194	5.6951e-02	3.4576e-02	-1.7304e-02	4.5070e-02	4.7814e+03
195	1.4760e-02	6.2815e-02	1.6704e-02	3.1985e-01	4.8599e+03
196	2.3259e-02	5.0665e-02	-2.8134e-02	2.0359e-02	5.2210e+03
197	1.9028e-02	5.5738e-02	1.3617e-01	2.6270e-02	5.0867e+03
198	2.4045e-02	8.0539e-02	2.8479e-02	2.5692e-02	4.6874e+03
199	5.5223e-02	6.3395e-02	3.3220e-02	1.5019e-01	4.3473e+03
200	8.4236e-03	7.8233e-02	-2.0244e-01	1.4600e-01	4.7876e+03
201	2.0291e-02	1.0657e-01	1.0516e-01	5.1313e-03	4.5019e+03
202	3.9110e-02	1.1484e-01	-4.7645e-02	1.0872e-02	4.2832e+03
203	5.3333e-02	1.1964e-01	1.0862e-01	-2.5737e-03	4.0157e+03
204	5.0655e-02	1.3592e-01	1.4365e-01	-2.4716e-02	4.1404e+03
205	4.9726e-02	1.2348e-01	-7.4970e-02	4.3328e-02	4.0107e+03
206	5.2810e-02	1.3708e-01	-1.5080e-02	-9.4547e-03	4.0499e+03
207	3.1310e-02	1.5661e-01	-4.7289e-02	4.8195e-02	3.8168e+03
208	5.0111e-02	1.5361e-01	-2.8705e-03	-8.8302e-02	3.8781e+03
209	3.1280e-02	1.7522e-01	-1.8129e-02	-3.7848e-02	3.8919e+03
210	3.5327e-03	2.2738e-01	-1.8454e-01	1.7427e-01	3.2926e+03
211	4.5139e-02	1.6206e-01	1.5900e-02	2.9056e-02	3.7028e+03
212	1.3158e-02	2.3978e-01	-1.3445e-02	-8.7475e-02	3.0844e+03
213	1.3232e-02	1.9648e-01	-8.5802e-02	4.0183e-02	3.5487e+03
214	8.6869e-03	2.2088e-01	-8.2368e-02	7.2015e-02	3.2307e+03
215	3.2160e-02	2.6200e-01	-3.8863e-02	2.2058e-01	3.0297e+03
216	1.2481e-03	2.4362e-01	2.3289e-01	2.9285e-01	2.9617e+03
217	2.1364e-02	2.2516e-01	5.0776e-03	-7.5148e-02	3.0787e+03
218	2.5013e-02	2.6136e-01	9.7918e-02	1.3295e-01	3.0694e+03
219	1.2699e-02	2.8199e-01	-1.3333e-01	2.7804e-01	3.1602e+03
220	4.0730e-02	2.6029e-01	-9.9074e-03	-2.6890e-02	3.0120e+03
221	3.2451e-02	2.9623e-01	-2.9535e-02	-1.8470e-03	2.9538e+03
222	3.9809e-02	2.8310e-01	6.9939e-02	3.2111e-02	2.8976e+03
223	4.8208e-02	2.7197e-01	-4.4471e-02	-1.3247e-01	3.0695e+03
224	4.0387e-02	3.2167e-01	7.5811e-02	-1.1631e-01	2.7150e+03
225	3.0744e-02	3.4318e-01	6.2659e-02	3.0963e-02	2.5197e+03
226	2.8251e-02	3.3343e-01	6.4379e-02	5.4598e-03	2.6200e+03
227	1.5482e-02	3.5882e-01	-9.4289e-02	1.4905e-01	2.5859e+03
228	2.3628e-02	3.7966e-01	-3.1349e-02	2.5269e-01	2.2712e+03
229	1.5702e-02	3.6217e-01	-1.8472e-02	1.0520e-01	2.6419e+03
230	3.5871e-02	3.5250e-01	-3.1467e-02	-6.1540e-02	2.2558e+03
231	3.4402e-02	3.6401e-01	-1.8385e-02	7.4149e-02	2.4748e+03
232	3.2631e-02	3.7134e-01	-1.5006e-02	-1.0179e-01	2.4381e+03
233	4.1671e-02	3.7665e-01	2.7688e-02	-1.4952e-01	2.3273e+03
234	4.0386e-02	3.8825e-01	-8.8715e-02	-1.8845e-02	2.1196e+03
235	1.4501e-02	4.4031e-01	1.0193e-01	5.3373e-02	2.1556e+03
236	2.3546e-02	4.0026e-01	-8.3177e-02	-1.2473e-01	2.2822e+03
237	3.5096e-02	4.2135e-01	-7.5606e-04	1.2271e-02	2.0367e+03
238	4.4870e-02	4.1876e-01	4.8618e-02	-1.0462e-01	1.8168e+03
239	1.2600e-02	4.7831e-01	-1.0332e-01	1.6321e-01	1.3722e+03
240	3.9302e-02	5.2812e-01	2.0094e-01	1.5237e-01	9.4913e+02
241	3.2273e-02	4.7798e-01	-7.8213e-02	1.0170e-01	1.2579e+03
242	6.8070e-03	4.7370e-01	-7.0410e-02	6.3564e-02	1.5999e+03
243	4.0008e-02	4.7355e-01	4.9554e-02	-1.0746e-01	1.4300e+03
244	5.2352e-02	4.8290e-01	6.8259e-02	-1.3729e-01	1.3388e+03
245	5.7784e-02	4.7000e-01	-2.2050e-02	-1.6552e-01	1.3737e+03
246	7.1130e-02	4.7957e-01	9.9526e-02	-2.2874e-01	1.2406e+03
247	4.8519e-02	5.1158e-01	1.1248e-01	-1.8027e-01	1.0599e+03
248	7.1261e-02	5.2747e-01	1.2096e-01	-1.0365e-01	8.8422e+02
249	4.0893e-02	5.3673e-01	9.0729e-02	-6.2037e-02	8.5129e+02
250	5.3329e-02	5.4332e-01	7.4905e-02	-1.3014e-01	6.4397e+02
251	7.3047e-02	5.3839e-01	9.6269e-02	-2.8080e-01	6.6400e+02
252	4.9524e-02	5.5230e-01	2.6317e-02	-2.5142e-01	5.1948e+02
253	6.5401e-02	5.5075e-01	1.6291e-01	-2.4004e-01	5.8786e+02
254	6.2584e-02	5.8543e-01	9.2801e-02	-2.9962e-01	2.0256e+02
255	6.5832e-02	5.6634e-01	2.1078e-01	-2.2918e-01	5.8770e+02
256	3.6728e-02	1.8510e-02	-7.9132e-02	5.7228e-02	5.3460e+03
257	1.4803e-02	2.5183e-02	-7.8320e-02	1.9792e-01	5.4658e+03
258	3.3359e-02	2.2921e-02	-2.1622e-02	-1.3500e-01	5.3954e+03
259	5.8806e-03	3.4956e-02	-2.1861e-01	1.3580e-02	5.4387e+03
260	6.7934e-02	1.8642e-02	-7.9287e-03	1.2265e-02	5.0475e+03
261	4.9200e-02	4.3665e-02	4.3270e-02	-1.1270e-01	4.9068e+03
262	3.6659e-02	5.0062e-02	-3.9880e-02	4.1280e-02	5.0454e+03
263	2.2240e-02	9.9489e-02	-2.7181e-01	1.8962e-01	4.6245e+03
264	7.1577e-02	7.7731e-02	4.8665e-02	-1.0868e-01	4.0557e+03
265	3.2928e-02	1.1116e-01	2.4487e-01	7.2777e-02	4.4176e+03
266	3.5026e-02	7.6243e-02	-1.1426e-01	-5.3913e-02	4.7098e+03
267	8.5073e-02	8.5261e-02	1.4116e-01	-1.2758e-01	4.1493e+03
268	6.2913e-02	1.0611e-01	2.2542e-02	-2.2151e-02	4.0682e+03
269	6.6157e-02	1.1921e-01	1.2035e-01	-1.0611e-01	3.9762e+03
270	7.7599e-02	1.3818e-01	1.1120e-01	7.2868e-02	3.7249e+03
271	3.1881e-02	1.4638e-01	-8.4433e-02	-1.3722e-02	3.8936e+03
272	4.5798e-02	1.7739e-01	-3.5590e-02	-1.8078e-02	3.6053e+03
273	5.9571e-02	1.6738e-01	8.8489e-02	-4.6350e-02	3.6362e+03
274	5.8260e-02	1.8480e-01	6.8279e-03	-4.7970e-02	3.2333e+03
275	3.2200e-02	1.6842e-01	-1.4275e-01	-5.7296e-02	3.8210e+03
276	3.1715e-02	1.9068e-01	-1.3975e-01	-1.2573e-03	3.4817e+03
277	1.6633e-02	2.0400e-01	1.2181e-01	1.4540e-01	3.5717e+03
278	4.0377e-02	2.3674e-01	-2.6538e-02	1.7021e-01	2.9812e+03
279	1.7255e-02	2.5259e-01	-1.9046e-02	1.9897e-01	2.9610e+03
280	4.7737e-03	2.6363e-01	-1.6044e-02	1.0195e-01	3.0386e+03
281	2.6752e-02	2.3624e-01	-9.9696e-02	7.5781e-02	3.0347e+03
282	2.1349e-02	2.5112e-01	-1.1753e-02	7.3882e-03	2.9828e+03
283	4.0818e-02	2.4930e-01	2.1913e-02	-3.5861e-02	3.0794e+03
284	5.4359e-02	2.6218e-01	3.1148e-02	-2.3896e-02	2.7801e+03
285	5.1519e-02	2.7631e-01	3.5209e-02	-2.0550e-02	2.9584e+03
286	6.6201e-02	2.7813e-01	6.6693e-02	-3.2404e-02	2.7949e+03
287	3.9595e-02	3.0394e-01	7.0188e-02	-1.2808e-03	2.8108e+03
288	4.2579e-02	2.8786e-01	-2.2546e-02	4.7456e-02	2.9200e+03
289	6.3439e-02	2.9478e-01	9.6876e-02	-1.3248e-01	2.6398e+03
290	4.6590e-02	3.2036e-01	-2.3263e-02	-4.6227e-02	2.7076e+03
291	6.3042e-02	3.2430e-01	5.5410e-02	1.0592e-02	2.4755e+03
292	4.3948e-02	3.3740e-01	-2.7681e-02	1.9688e-02	2.4781e+03
293	3.1110e-02	3.3760e-01	-7.7712e-02	-7.8673e-02	2.5267e+03
294	4.4787e-02	3.4805e-01	3.3222e-02	-1.1681e-01	2.4623e+03
295	4.6741e-02	3.5883e-01	-3.8276e-02	-4.1065e-02	2.1875e+03
296	5.2381e-02	3.6005e-01	-7.1495e-03	-1.1078e-01	2.1667e+03
297	4.8436e-02	3.7168e-01	-1.3498e-01	-1.1696e-01	2.1821e+03
298	4.8111e-02	3.8771e-01	5.2561e-03	-9.8431e-02	1.9996e+03
299	5.6393e-02	4.0060e-01	1.1140e-01	-8.6828e-02	1.9014e+03
300	4.8240e-02	4.0068e-01	-4.2101e-02	-9.3992e-02	1.9593e+03
301	5.2330e-02	4.1161e-01	8.7212e-02	-1.7881e-01	1.9194e+03
302	4.8146e-02	4.3114e-01	-7.1479e-02	-1.1990e-01	1.7847e+03
303	4.4300e-02	4.4549e-01	4.8398e-02	-9.6962e-02	1.5831e+03
304	2.9319e-02	4.6051e-01	5.9045e-03	1.9929e-02	1.6819e+03
305	3.1633e-02	4.5431e-01	-8.3416e-02	-1.0758e-03	1.6537e+03
306	4.5827e-02	4.5520e-01	-6.7740e-03	-5.7910e-03	1.5602e+03
307	3.8803e-02	4.7610e-01	-2.2662e-02	-4.4104e-02	1.3434e+03
308	1.3577e-02	4.9553e-01	-1.8918e-01	7.7129e-02	1.3892e+03
309	2.8139e-02	4.8668e-01	-1.4066e-01	-2.8493e-02	1.3581e+03
310	4.3430e-02	4.7973e-01	-2.5735e-02	-1.9010e-01	1.3417e+03
311	4.4532e-02	4.9608e-01	-1.0189e-01	-1.8360e-01	1.1329e+03
312	6.4636e-02	4.9630e-01	8.7996e-02	-2.4883e-01	1.0367e+03
313	5.4024e-02	5.2801e-01	9.4462e-02	-3.0008e-01	5.8456e+02
314	4.0915e-02	5.5547e-01	-5.6462e-02	-9.9397e-02	6.2675e+02
315	1.8953e-02	5.7476e-01	-7.4735e-02	-5.2651e-03	6.2094e+02
316	2.1709e-02	5.4018e-01	-1.3478e-01	-2.1915e-01	8.0802e+02
317	3.3991e-02	5.5352e-01	-3.5939e-02	-1.5743e-01	6.9508e+02
318	6.8288e-02	5.8436e-01	1.2850e-01	-1.5930e-01	-4.1199e+01
319	6.9560e-02	5.8822e-01	1.7251e-01	-3.1161e-01	1.2452e+02
320	1.9227e-02	1.9641e-02	-1.2600e-01	7.9455e-02	5.4928e+03
321	5.3608e-02	1.2938e-02	5.0367e-02	3.3083e-02	5.2851e+03
322	4.3782e-02	3.7016e-03	5.4865e-05	-6.9294e-02	5.2788e+03
323	3.9955e-02	3.3149e-02	-8.9860e-02	-7.9468e-02	5.0020e+03
324	8.9899e-02	3.3872e-02	2.1777e-01	-8.4115e-02	4.8430e+03
325	5.5962e-02	8.1510e-02	3.4259e-02	1.3686e-01	4.3618e+03
326	3.7875e-02	4.0455e-02	-4.2749e-02	7.7549e-02	4.8946e+03
327	4.7239e-02	5.3809e-02	-2.2411e-02	-6.0928e-02	4.6877e+03
328	1.4724e-02	8.8973e-02	-4.9937e-02	4.1989e-02	4.7379e+03
329	6.7012e-02	8.9514e-02	-2.2212e-02	1.1855e-02	4.1442e+03
330	4.4935e-02	9.2031e-02	-1.9399e-01	7.1681e-02	4.2198e+03
331	5.2359e-02	9.8017e-02	3.3328e-02	2.5979e-03	4.1487e+03
332	4.2117e-02	9.7828e-02	-5.0962e-02	-8.8150e-02	4.4339e+03
333	5.7167e-02	9.0673e-02	5.9385e-02	-1.5335e-01	4.2948e+03
334	7.5600e-02	1.1571e-01	2.8208e-02	-1.0486e-01	3.7820e+03
335	6.5961e-02	1.3673e-01	8.7063e-02	3.6995e-02	3.7734e+03
336	5.9489e-02	1.7146e-01	-4.4253e-02	-7.6560e-02	3.4819e+03
337	6.2448e-02	1.5141e-01	5.8539e-02	2.5343e-02	3.7108e+03
338	6.8150e-02	1.5573e-01	-7.2524e-02	-5.5342e-02	3.6191e+03
339	7.0854e-02	1.7378e-01	3.9377e-02	-7.8368e-02	3.3829e+03
340	4.1937e-02	2.0815e-01	1.0741e-01	-1.7833e-02	3.1904e+03
341	4.5374e-02	1.8730e-01	1.4989e-02	2.1685e-02	3.6025e+03
342	4.5804e-02	1.9298e-01	-4.9549e-03	-6.8581e-02	3.5543e+03
343	2.6989e-02	2.4567e-01	-1.6127e-01	1.0073e-01	3.0285e+03
344	3.5802e-02	2.2067e-01	-1.8373e-01	-2.5357e-02	3.2560e+03
345	4.6742e-02	2.3049e-01	-8.5525e-02	-5.7796e-02	3.0785e+03
346	4.0170e-02	2.4374e-01	-8.0188e-02	2.1059e-01	2.9661e+03
347	5.6035e-02	2.4606e-01	-1.0086e-01	-3.5140e-02	2.8773e+03
348	7.4962e-02	2.4651e-01	-1.5797e-02	-1.4435e-01	2.9972e+03
349	6.1597e-02	2.5789e-01	7.2062e-02	-1.8506e-01	2.7197e+03
350	6.3065e-02	2.6415e-01	7.2615e-02	-3.5213e-02	2.7237e+03
351	5.7729e-02	2.8286e-01	4.7235e-03	-1.5817e-01	2.7066e+03
352	5.3597e-02	2.9133e-01	-6.9734e-02	-4.1778e-02	2.6963e+03
353	7.2544e-02	2.9112e-01	6.4576e-02	-1.0988e-01	2.6395e+03
354	7.4052e-02	3.0672e-01	4.8577e-02	-9.0516e-02	2.5506e+03
355	5.6854e-02	3.1538e-01	5.2439e-03	-1.2788e-02	2.5257e+03
356	5.8825e-02	3.2690e-01	4.6656e-02	-1.9595e-01	2.4060e+03
357	6.0589e-02	3.3594e-01	1.0671e-01	-1.4811e-01	2.2679e+03
358	5.7897e-02	3.4394e-01	-3.0097e-03	-3.8132e-02	2.3277e+03
359	5.7854e-02	3.5030e-01	8.7808e-03	-1.0464e-01	2.3526e+03
360	5.7360e-02	3.6778e-01	6.2386e-02	-6.5865e-02	2.1004e+03
361	5.1849e-02	3.7849e-01	-8.5178e-02	-9.2999e-03	2.0510e+03
362	6.4313e-02	3.8241e-01	-2.2510e-02	-1.3023e-01	2.0818e+03
363	6.4099e-02	3.8560e-01	-3.3528e-02	-1.3606e-01	2.0670e+03
364	6.1288e-02	3.9193e-01	5.3174e-02	-2.1758e-01	2.0026e+03
365	6.1406e-02	4.1018e-01	-7.3956e-02	-1.7396e-01	1.9340e+03
366	5.7017e-02	4.2182e-01	4.0221e-02	-2.0977e-01	1.6885e+03
367	6.1021e-02	4.2567e-01	9.4877e-02	-1.7812e-01	1.6979e+03
368	5.2681e-02	4.3713e-01	4.1098e-02	-9.5161e-02	1.6484e+03
369	5.9331e-02	4.4439e-01	9.1950e-02	-1.2460e-01	1.5382e+03
370	5.2042e-02	4.6143e-01	-1.0933e-01	-2.3798e-02	1.4985e+03
371	4.0609e-02	4.5589e-01	-9.5887e-02	-1.2713e-01	1.5786e+03
372	5.3529e-02	4.6077e-01	-7.9322e-02	-2.0893e-01	1.4692e+03
373	6.2600e-02	4.8125e-01	-4.4896e-02	-1.0961e-01	1.2616e+03
374	7.0279e-02	4.8939e-01	5.2092e-03	-1.9792e-01	1.1283e+03
375	5.5293e-02	4.9753e-01	-6.4188e-02	-1.3957e-01	9.9744e+02
376	5.5314e-02	5.0987e-01	-1.0978e-01	-1.7490e-01	9.3379e+02
377	7.4148e-02	5.1840e-01	5.9356e-02	-2.0997e-01	7.3169e+02
378	7.1881e-02	5.1868e-01	2.8139e-02	-2.2610e-01	7.4505e+02
379	6.5277e-02	5.3771e-01	1.2633e-01	-2.9975e-01	5.3523e+02
380	6.6205e-02	5.4992e-01	8.2895e-02	-1.2341e-01	4.3809e+02
381	7.5697e-02	5.5559e-01	1.0149e-01	-2.3145e-01	5.3970e+02
382	7.9022e-02	5.9692e-01	1.2007e-01	-2.4769e-01	0.0000e+00
383	6.6654e-02	5.7437e-01	1.0598e-01	-1.3030e-01	4.8563e+02
384	2.3104e-02	6.9228e-03	-1.8429e-01	1.8083e-02	5.3026e+03
385	5.5898e-02	9.9846e-03	-1.1944e-01	5.2531e-02	5.2509e+03
386	2.3680e-02	2.7396e-02	-6.5982e-03	7.8257e-03	5.2994e+03
387	4.6405e-02	2.9871e-02	-1.1295e-01	4.5682e-02	4.9807e+03
388	5.6897e-02	4.9392e-02	-1.2134e-01	-4.3770e-02	4.6477e+03
389	6.4320e-02	6.5681e-02	2.0360e-02	-7.6768e-02	4.4035e+03
390	4.9588e-02	6.8863e-02	-1.0919e-01	2.6639e-02	4.3879e+03
391	4.8549e-02	7.5488e-02	4.2574e-02	3.2083e-02	4.4050e+03
392	6.1554e-02	7.8298e-02	-4.8715e-02	-9.3444e-03	4.2739e+03
393	7.3804e-02	9.3620e-02	1.6751e-02	3.1881e-02	3.9000e+03
394	8.0015e-02	6.3043e-02	-2.1575e-03	-1.1338e-01	4.3112e+03
395	3.7521e-02	8.3587e-02	-1.5584e-01	-7.5068e-02	4.5349e+03
396	6.5224e-02	1.0253e-01	-1.9433e-01	-6.8199e-02	4.0291e+03
397	7.7801e-02	1.1035e-01	4.1795e-02	-9.9213e-02	3.8306e+03
398	6.5506e-02	1.2384e-01	-3.4022e-02	-1.0771e-02	3.9177e+03
399	8.8681e-02	1.4555e-01	6.0153e-02	-1.2552e-02	3.7113e+03
400	7.9984e-02	1.3982e-01	3.2084e-02	-5.3551e-02	3.7565e+03
401	6.9313e-02	1.5155e-01	-4.6673e-02	-9.1275e-02	3.6191e+03
402	6.6437e-02	1.3585e-01	4.3766e-02	-1.8515e-01	3.7964e+03
403	6.4360e-02	1.8623e-01	3.4349e-02	7.0908e-03	3.2801e+03
404	5.1916e-02	2.0130e-01	-1.8201e-01	6.3900e-02	3.2320e+03
405	6.2547e-02	1.9622e-01	4.9852e-02	-5.5376e-02	3.1338e+03
406	5.8474e-02	2.1122e-01	3.7967e-02	-1.0450e-01	3.0626e+03
407	5.3296e-02	2.0215e-01	-7.4286e-02	-5.5311e-02	3.2286e+03
408	5.9953e-02	2.2005e-01	3.9674e-02	-8.2049e-02	3.0056e+03
409	6.9299e-02	2.1205e-01	-7.9684e-03	-5.9727e-02	3.1980e+03
410	7.1262e-02	2.2908e-01	-5.9233e-02	-7.3405e-02	3.0619e+03
411	5.3945e-02	2.2497e-01	-8.6580e-02	-2.1992e-03	2.9683e+03
412	7.9673e-02	2.3555e-01	-4.7579e-03	-7.5156e-02	2.8820e+03
413	7.8185e-02	2.5230e-01	-4.2851e-02	-1.6383e-01	2.8204e+03
414	7.3857e-02	2.6239e-01	6.9268e-02	-1.0708e-01	2.8887e+03
415	6.8011e-02	2.7527e-01	-6.9349e-02	-1.0977e-01	2.7797e+03
416	8.2858e-02	2.8845e-01	5.3403e-02	-8.9736e-02	2.6714e+03
417	7.0842e-02	2.9910e-01	-1.0260e-01	-1.0169e-01	2.5575e+03
418	6.8238e-02	3.1238e-01	6.3224e-02	-1.8530e-01	2.4916e+03
419	7.6399e-02	3.2441e-01	6.7535e-02	-1.1695e-01	2.3240e+03
420	7.4481e-02	3.2604e-01	2.5914e-03	-9.5875e-02	2.3647e+03
421	7.4179e-02	3.3707e-01	-1.9243e-02	-3.6207e-02	2.3729e+03
422	7.3287e-02	3.4446e-01	8.7509e-02	-1.7426e-01	2.2933e+03
423	6.5593e-02	3.5308e-01	-4.3349e-02	-3.6641e-02	2.2327e+03
424	6.7715e-02	3.6635e-01	-4.8023e-02	-7.8137e-02	2.2259e+03
425	6.9022e-02	3.7043e-01	-1.6889e-02	-1.6253e-01	2.1662e+03
426	7.5358e-02	3.7681e-01	3.6755e-02	-1.8586e-01	1.9961e+03
427	8.0500e-02	3.8976e-01	5.7646e-02	-1.6790e-01	1.8774e+03
428	6.8789e-02	3.9871e-01	4.4455e-02	-1.3515e-01	1.9402e+03
429	7.4590e-02	4.0398e-01	-8.5769e-03	-2.2371e-01	1.8211e+03
430	7.7247e-02	4.1606e-01	6.7229e-02	-1.5552e-01	1.6909e+03
431	7.2705e-02	4.2709e-01	2.7329e-02	-1.2423e-01	1.6694e+03
432	6.9955e-02	4.3883e-01	-2.2655e-02	-1.3464e-01	1.6078e+03
433	5.9897e-02	4.4595e-01	-2.5984e-02	-1.8226e-01	1.5007e+03
434	7.2634e-02	4.5368e-01	-1.5063e-02	-9.8969e-02	1.4414e+03
435	6.8721e-02	4.5563e-01	1.8721e-02	-1.7537e-01	1.4443e+03
436	6.2539e-02	4.6845e-01	1.8281e-04	-1.6171e-01	1.2875e+03
437	8.4940e-02	4.7431e-01	8.1307e-02	-1.7804e-01	1.2010e+03
438	7.8471e-02	4.8960e-01	5.9162e-02	-1.6766e-01	1.0796e+03
439	6.6686e-02	5.0456e-01	-4.3881e-02	-1.5216e-01	1.0116e+03
440	7.0924e-02	5.0656e-01	1.1562e-02	-2.5549e-01	9.8238e+02
441	8.6932e-02	5.1470e-01	1.1781e-01	-2.4547e-01	7.9827e+02
442	8.2809e-02	5.2968e-01	8.0359e-02	-2.2746e-01	7.7723e+02
443	8.1816e-02	5.3764e-01	1.0101e-01	-2.3638e-01	6.4181e+02
444	7.9958e-02	5.4522e-01	1.1674e-01	-1.8904e-01	4.3497e+02
445	8.6331e-02	5.6021e-01	1.5455e-01	-1.8485e-01	4.2439e+02
446	8.2847e-02	5.9162e-01	1.3855e-01	-1.2905e-01	0.0000e+00
447	7.8320e-02	5.6630e-01	1.4080e-01	-2.0107e-01	2.8520e+02
448	6.2274e-02	6.2281e-04	-3.4061e-02	1.8634e-01	5.1469e+03
449	6.7548e-02	2.5171e-02	-5.2644e-02	1.4736e-01	4.9423e+03
450	7.4282e-02	3.9928e-02	1.2476e-01	-3.2872e-02	4.7752e+03
451	6.5772e-02	3.7470e-02	-2.0730e-03	2.4024e-02	4.7214e+03
452	5.7651e-02	2.7140e-02	-4.5822e-02	-1.0669e-01	4.9315e+03
453	5.9596e-02	5.0347e-02	-1.0402e-01	9.9999e-02	4.6330e+03
454	6.8461e-02	5.9377e-02	1.4951e-02	-2.7788e-02	4.5484e+03
455	7.4764e-02	7.3026e-02	1.4368e-03	-9.9325e-03	4.2214e+03
456	7.2186e-02	5.3106e-02	-1.7915e-01	-2.5088e-02	4.4929e+03
457	9.9324e-02	6.0930e-02	7.2499e-02	-8.0993e-02	4.4732e+03
458	9.7319e-02	7.4654e-02	5.0598e-02	-2.2746e-01	3.9743e+03
459	9.3015e-02	9.2983e-02	5.2499e-02	-2.4662e-02	4.1142e+03
460	5.5451e-02	1.0908e-01	-2.8644e-02	4.4427e-02	4.1612e+03
461	8.9768e-02	1.1071e-01	1.7215e-02	-5.7212e-02	3.9581e+03
462	8.6198e-02	1.2615e-01	5.7447e-02	-4.6058e-02	3.6280e+03
463	9.0071e-02	1.5032e-01	-4.1329e-02	-1.1110e-01	3.5944e+03
464	5.0014e-02	1.5604e-01	-9.9616e-02	4.2563e-02	3.8162e+03
465	8.3124e-02	1.6717e-01	4.7140e-02	-7.6243e-02	3.4517e+03
466	7.4659e-02	1.6138e-01	4.8918e-02	-4.7590e-02	3.5214e+03
467	7.2538e-02	1.7568e-01	3.3601e-02	-4.0061e-02	3.3747e+03
468	8.0663e-02	1.8412e-01	-2.4498e-02	-3.7645e-02	3.3409e+03
469	7.1772e-02	1.9238e-01	-1.2559e-02	-9.3086e-02	3.3976e+03
470	7.2000e-02	2.0326e-01	-6.7027e-02	-6.6218e-02	3.1840e+03
471	7.3989e-02	2.0798e-01	-4.6246e-02	-4.6686e-02	3.1432e+03
472	8.4449e-02	2.1653e-01	5.1447e-02	-3.8277e-03	3.0771e+03
473	7.3066e-02	2.2333e-01	4.2333e-02	-3.6121e-02	3.1216e+03
474	8.4522e-02	2.3102e-01	6.0134e-02	-7.0116e-02	2.8978e+03
475	9.4916e-02	2.2558e-01	8.6592e-02	-1.8139e-01	3.0175e+03
476	6.4428e-02	2.3011e-01	3.8968e-04	-1.9084e-01	3.0738e+03
477	8.3025e-02	2.5642e-01	3.5203e-02	-4.1881e-02	2.7511e+03
478	8.0987e-02	2.6883e-01	-8.7349e-02	-9.9729e-02	2.7563e+03
479	9.0329e-02	2.7418e-01	3.9196e-02	-9.4649e-02	2.6369e+03
480	7.7555e-02	2.8556e-01	4.2554e-02	-1.3245e-01	2.6572e+03
481	7.6375e-02	3.1025e-01	1.0880e-02	-1.1772e-02	2.5171e+03
482	9.1828e-02	3.1190e-01	9.0511e-02	-7.6802e-02	2.3862e+03
483	8.7656e-02	3.1460e-01	3.0538e-02	-1.5661e-01	2.4055e+03
484	8.7223e-02	3.2635e-01	1.0333e-01	-1.3332e-01	2.2390e+03
485	8.3701e-02	3.3717e-01	5.5013e-03	-9.5029e-02	2.1863e+03
486	8.3389e-02	3.4816e-01	5.9021e-03	-7.7666e-02	2.2080e+03
487	7.3461e-02	3.5438e-01	-6.2950e-03	-9.8324e-02	2.1476e+03
488	7.9797e-02	3.6025e-01	2.4139e-02	-1.5022e-01	2.0551e+03
489	8.3637e-02	3.6709e-01	2.6859e-02	-9.3163e-02	2.0193e+03
490	8.5904e-02	3.7614e-01	6.2678e-02	-1.4325e-01	2.0537e+03
491	7.9848e-02	3.8777e-01	-3.2306e-02	-1.5101e-01	1.8818e+03
492	8.5455e-02	3.9748e-01	3.0650e-02	-1.2246e-01	1.8385e+03
493	8.4733e-02	4.0436e-01	3.0494e-02	-1.3891e-01	1.8420e+03
494	8.2067e-02	4.1890e-01	6.8371e-02	-1.4032e-01	1.7147e+03
495	7.0515e-02	4.2932e-01	-8.0722e-02	-1.6671e-01	1.6701e+03
496	7.5797e-02	4.4203e-01	2.7625e-02	-1.1237e-01	1.5293e+03
497	8.2159e-02	4.4601e-01	7.0389e-02	-1.4987e-01	1.4838e+03
498	8.5981e-02	4.5621e-01	3.1467e-02	-1.4726e-01	1.2959e+03
499	7.8092e-02	4.6221e-01	-7.7843e-02	-1.3770e-01	1.3818e+03