variables="k","x","y","vx","vy","pressure"
zone i=8064 j=1
0	2.4217e-02	1.3380e-01	-1.7753e-02	7.0035e-02	2.3585e+03
1	1.4934e-04	1.3459e-01	2.5055e-02	1.5209e-01	2.2756e+03
2	2.7914e-02	8.9187e-02	1.7667e-01	1.2311e-01	2.6716e+03
3	1.3713e-02	1.3504e-01	4.7032e-02	2.5738e-01	2.2379e+03
4	7.0495e-02	1.0511e-01	-5.6928e-02	2.9873e-02	2.4703e+03
5	2.1209e-02	1.4384e-01	-1.0870e-02	1.2944e-01	2.1155e+03
6	4.3193e-02	2.0345e-01	-3.2923e-04	4.9780e-02	1.5528e+03
7	4.2711e-02	2.0317e-01	-1.2876e-02	1.4762e-01	1.5777e+03
8	-4.4923e-04	2.0841e-01	3.4485e-02	1.0633e-01	1.6212e+03
9	1.9636e-02	2.1440e-01	2.1388e-02	1.7785e-01	1.4830e+03
10	7.2143e-02	1.7954e-01	1.1338e-01	-5.8916e-02	1.7424e+03
11	2.6330e-03	2.5081e-01	-4.5659e-02	7.3546e-02	1.1997e+03
12	1.2852e-02	2.3118e-01	-7.9596e-03	1.7013e-01	1.3123e+03
13	5.4413e-02	3.0889e-01	2.1711e-01	-4.0913e-02	5.5181e+02
14	1.1746e-02	2.1123e-01	-3.7548e-02	8.4046e-02	1.4848e+03
15	5.0018e-02	2.2086e-01	-6.4222e-02	-7.6461e-02	1.3935e+03
16	2.4567e-02	2.6950e-01	7.4350e-02	7.8601e-02	9.6546e+02
17	3.7019e-02	3.3169e-01	1.7612e-01	-9.1392e-02	5.5155e+02
18	3.4948e-02	2.7785e-01	6.5579e-02	-3.0800e-02	8.4081e+02
19	1.0059e-02	3.2696e-01	3.9332e-02	-1.0508e-01	4.9899e+02
20	2.5470e-02	2.9319e-01	1.7995e-02	7.2912e-02	5.7025e+02
21	1.0746e-02	2.9414e-01	-2.0464e-03	2.0494e-01	5.1201e+02
22	9.4972e-02	1.2283e-01	-3.2096e-02	-1.4089e-01	2.2350e+03
23	1.0380e-01	2.3070e-01	8.2159e-02	-1.2175e-01	1.1532e+03
24	5.1329e-02	3.3428e-01	1.0889e-01	-1.1114e-01	5.2229e+02
25	-9.3339e-05	3.4944e-01	9.4124e-02	-1.8954e-01	0.0000e+00
26	1.2498e-01	1.7412e-01	2.1022e-02	-2.0694e-01	1.7323e+03
27	1.3350e-02	2.8111e-01	3.1414e-02	9.0239e-02	6.8833e+02
28	6.4828e-02	3.4458e-01	2.3925e-01	-3.0227e-01	0.0000e+00
29	9.5636e-02	3.0163e-01	2.8069e-01	-2.2670e-01	3.4320e+02
30	-2.5014e-04	3.4098e-01	3.7173e-01	-2.5392e-01	0.0000e+00
31	1.0242e-01	2.6245e-01	1.9826e-01	-1.9371e-01	9.1591e+02
32	1.6337e-01	2.9420e-01	3.0249e-01	-3.1042e-01	4.0005e+02
33	9.0794e-02	3.3182e-01	3.6358e-01	-3.7973e-01	8.9206e+01
34	1.7454e-01	2.9955e-01	4.4900e-01	-2.6266e-01	3.3921e+02
35	1.0617e-01	3.3688e-01	4.5170e-01	-4.7614e-01	0.0000e+00
36	1.6761e-01	2.8771e-01	1.9676e-01	-2.2216e-01	5.6498e+02
37	6.3738e-02	3.1794e-01	1.1830e-01	-2.2963e-01	3.5457e+02
38	2.2899e-01	2.7682e-01	2.6207e-01	-3.5688e-01	7.8795e+02
39	1.9178e-01	3.2380e-01	4.8970e-01	-2.1236e-01	0.0000e+00
40	2.1834e-01	3.2027e-01	4.3835e-01	-2.1668e-01	1.0455e+02
41	1.6316e-01	2.6908e-01	1.9518e-01	-3.0271e-01	8.6858e+02
42	1.2802e-01	2.6516e-01	1.9251e-01	-2.7558e-01	8.3127e+02
43	1.1920e-01	2.9244e-01	1.2445e-01	-2.3048e-01	4.7446e+02
44	2.0682e-01	2.7675e-01	4.0369e-01	-3.2429e-01	6.3957e+02
45	1.6975e-01	3.1266e-01	5.6596e-01	-3.6925e-01	2.2397e+02
46	1.1606e-01	2.7720e-01	2.3367e-01	-2.1476e-01	6.1673e+02
47	1.2059e-01	3.2708e-01	4.4220e-01	-3.8495e-01	2.0385e+02
48	1.6353e-01	3.2319e-01	5.3788e-01	-2.1692e-01	0.0000e+00
49	2.7844e-01	3.2278e-01	4.4146e-01	-2.0233e-01	2.6462e+02
50	2.6119e-01	3.2080e-01	4.3768e-01	-2.9836e-01	5.6382e+01
51	1.9476e-01	2.6320e-01	1.3860e-01	-3.0509e-01	8.6443e+02
52	1.5624e-01	2.5566e-01	1.9418e-01	-2.7746e-01	8.6727e+02
53	3.3135e-01	3.2111e-01	3.8228e-01	-2.3401e-01	5.5755e+01
54	2.0086e-01	2.6054e-01	2.5661e-01	-2.2553e-01	9.0618e+02
55	1.8168e-01	2.7439e-01	1.9619e-01	-2.3374e-01	7.4263e+02
56	1.4103e-01	2.6675e-01	1.5778e-01	-2.6757e-01	7.5424e+02
57	2.9443e-01	2.8454e-01	2.8219e-01	-2.4433e-01	5.2067e+02
58	2.5452e-01	3.2307e-01	4.4506e-01	-2.0945e-01	0.0000e+00
59	1.2764e-01	2.7887e-01	1.7211e-01	-2.5437e-01	6.9567e+02
60	2.9920e-01	3.2253e-01	4.1687e-01	-2.6429e-01	5.2601e+01
61	2.1756e-01	2.5789e-01	1.9260e-01	-3.1668e-01	8.2788e+02
62	2.6241e-01	3.0571e-01	4.1291e-01	-2.8161e-01	3.2506e+02
63	3.0313e-01	3.0601e-01	4.3206e-01	-2.6474e-01	3.7000e+02
64	3.2025e-02	-7.6929e-04	-6.5991e-02	9.7128e-03	3.3562e+03
65	-6.9223e-04	3.1096e-02	-1.1071e-01	-1.5725e-02	3.2942e+03
66	7.4032e-03	-1.3823e-04	-2.4920e-02	1.6533e-01	3.6946e+03
67	5.3432e-02	1.2468e-01	-9.1994e-02	3.2521e-02	2.3501e+03
68	2.7891e-02	1.1438e-01	-1.2802e-01	3.3869e-02	2.4455e+03
69	1.9227e-02	1.5872e-01	6.7814e-02	8.1604e-02	2.0400e+03
70	2.4190e-02	1.7058e-01	-6.1641e-02	1.4226e-01	2.0126e+03
71	6.6492e-02	1.7047e-01	5.8149e-02	6.8272e-02	1.8889e+03
72	2.3765e-02	1.8477e-01	-8.3535e-02	1.0919e-01	1.8100e+03
73	1.2770e-02	1.9090e-01	-2.8371e-02	5.8776e-02	1.8198e+03
74	4.0605e-02	2.1807e-01	1.4418e-02	1.2467e-01	1.3611e+03
75	1.5013e-02	2.2011e-01	4.7874e-02	1.1541e-01	1.4135e+03
76	7.7322e-02	1.8706e-01	3.1449e-02	-1.7162e-02	1.6726e+03
77	6.8316e-03	2.6283e-01	-1.6681e-02	5.7973e-02	9.7454e+02
78	1.5777e-02	2.6477e-01	5.2671e-02	4.2844e-02	8.9581e+02
79	5.1680e-03	2.9872e-01	1.6077e-02	-1.0278e-01	5.8000e+02
80	2.7181e-03	2.2414e-01	-3.4806e-02	9.4995e-02	1.4051e+03
81	2.8981e-02	1.7210e-01	4.7412e-02	1.9400e-02	1.9309e+03
82	1.8282e-02	2.4943e-01	3.2906e-02	7.0479e-02	1.1888e+03
83	3.8970e-02	2.4131e-01	1.3546e-01	7.3045e-02	1.1422e+03
84	1.9533e-02	2.9965e-01	1.3836e-01	1.6891e-02	5.3018e+02
85	8.1177e-02	3.2411e-01	4.1967e-01	-3.3052e-01	3.4846e+02
86	1.0625e-01	3.1222e-01	3.9094e-01	-2.7346e-01	1.9277e+02
87	8.7903e-02	1.8816e-01	-2.3913e-03	-7.5630e-02	1.6332e+03
88	5.0084e-02	2.8319e-01	8.7672e-02	-9.7053e-02	7.3941e+02
89	2.6291e-02	3.2453e-01	2.1912e-01	-1.1283e-01	2.2273e+02
90	8.3567e-02	3.4601e-01	3.0698e-01	-4.3543e-01	0.0000e+00
91	5.3873e-02	1.8019e-01	1.6490e-02	-1.1983e-01	1.7468e+03
92	3.6123e-02	3.4027e-01	1.6278e-01	-2.3434e-01	2.6300e+02
93	8.3360e-02	2.8849e-01	2.0488e-01	-1.8589e-01	6.8005e+02
94	8.8205e-02	2.5113e-01	6.4912e-02	-8.8356e-02	9.1100e+02
95	1.3343e-01	1.8398e-01	1.3873e-01	-2.1859e-01	1.5273e+03
96	1.2128e-01	3.2895e-01	4.1614e-01	-3.2061e-01	-4.6228e+01
97	4.1315e-02	3.4724e-01	2.3283e-01	-4.7804e-01	2.1320e+02
98	4.2797e-02	3.2050e-01	2.0984e-01	-3.0919e-01	1.3851e+02
99	1.0790e-01	3.3486e-01	4.7437e-01	-4.6761e-01	0.0000e+00
100	6.0001e-02	3.4074e-01	3.3794e-01	-3.5840e-01	1.7845e+02
101	9.0273e-02	3.0697e-01	1.4190e-01	-3.0633e-01	4.2812e+02
102	2.0610e-01	3.1528e-01	3.6373e-01	-2.5851e-01	3.5468e+02
103	1.8401e-01	3.1903e-01	4.9115e-01	-2.6514e-01	2.1299e+02
104	8.0514e-02	3.4986e-01	2.5822e-01	-2.8773e-01	0.0000e+00
105	1.4889e-01	3.1849e-01	6.2300e-01	-3.2414e-01	1.4817e+02
106	1.4644e-01	3.0596e-01	5.0286e-01	-3.1888e-01	2.8460e+02
107	1.8840e-01	3.1992e-01	4.8695e-01	-3.1398e-01	2.9406e+02
108	2.2132e-01	3.0442e-01	3.0858e-01	-3.3756e-01	4.0592e+02
109	1.7427e-01	3.2282e-01	3.6089e-01	-2.7813e-01	0.0000e+00
110	1.9768e-01	2.7564e-01	2.5471e-01	-2.7367e-01	6.9530e+02
111	2.5258e-01	2.9978e-01	3.3541e-01	-2.8504e-01	4.6539e+02
112	2.4767e-01	3.1023e-01	3.2355e-01	-2.8608e-01	2.6086e+02
113	2.0702e-01	3.0926e-01	3.2534e-01	-2.3630e-01	3.1795e+02
114	2.3559e-01	3.0601e-01	3.7754e-01	-2.8530e-01	2.3518e+02
115	1.4347e-01	2.9694e-01	3.4603e-01	-2.5781e-01	4.7610e+02
116	2.2957e-01	3.0776e-01	3.1965e-01	-2.5228e-01	1.8888e+02
117	2.2698e-01	2.9050e-01	4.0799e-01	-2.6553e-01	5.3250e+02
118	2.3379e-01	3.2564e-01	4.8165e-01	-3.0507e-01	0.0000e+00
119	2.7929e-01	3.1027e-01	4.1801e-01	-1.7246e-01	3.0879e+02
120	2.4247e-01	2.9829e-01	4.3260e-01	-2.3387e-01	4.9787e+02
121	2.4649e-01	2.8936e-01	3.2943e-01	-2.9844e-01	5.2599e+02
122	2.8504e-01	3.2452e-01	3.0792e-01	-2.4230e-01	0.0000e+00
123	2.4095e-01	2.8529e-01	2.2284e-01	-2.6893e-01	5.8410e+02
124	2.0885e-01	2.5233e-01	1.6411e-01	-2.7025e-01	9.0544e+02
125	3.3718e-01	3.1743e-01	3.5025e-01	-2.7292e-01	9.3625e+01
126	2.9847e-01	2.5603e-01	2.4559e-01	-2.4591e-01	7.8765e+02
127	2.4656e-01	2.6491e-01	2.6136e-01	-3.0900e-01	7.3229e+02
128	5.3804e-02	7.8705e-02	-1.9011e-02	-9.5391e-03	2.7722e+03
129	-1.5709e-04	1.5886e-01	1.0803e-01	1.0515e-01	2.1672e+03
130	3.0308e-02	1.2985e-01	-8.0457e-02	1.5208e-01	2.3402e+03
131	9.9690e-03	5.4578e-02	-1.6000e-02	9.4475e-02	2.9109e+03
132	3.0327e-03	4.7591e-02	1.7197e-01	-4.0158e-02	3.0278e+03
133	4.9318e-02	1.3849e-01	5.9658e-02	-3.5029e-02	2.1404e+03
134	4.2349e-02	1.7292e-01	-9.1067e-02	1.9837e-01	1.8384e+03
135	3.6666e-02	7.1817e-02	7.9751e-02	7.0247e-02	2.8486e+03
136	1.9356e-02	1.9807e-01	-5.0218e-02	9.9396e-02	1.7140e+03
137	1.3523e-02	2.5552e-01	-1.1006e-02	1.0410e-01	1.0735e+03
138	3.0523e-02	2.5167e-01	7.2310e-02	2.9926e-02	1.1039e+03
139	4.9965e-02	1.2543e-01	-4.5929e-02	-1.1265e-02	2.3522e+03
140	9.9215e-03	1.7166e-01	5.8278e-02	8.8831e-02	1.9285e+03
141	3.9085e-02	1.1775e-01	-1.0496e-01	1.0131e-01	2.3414e+03
142	3.1472e-04	2.3598e-01	1.4161e-01	6.6083e-02	1.4617e+03
143	5.2845e-02	1.9209e-01	1.2639e-01	1.5945e-01	1.6376e+03
144	3.0006e-02	1.9821e-01	-7.7348e-02	1.0601e-01	1.6228e+03
145	7.0012e-02	1.4852e-01	1.2284e-02	-5.3186e-02	2.0118e+03
146	2.3569e-02	3.1339e-01	6.1342e-02	-2.9007e-02	4.9253e+02
147	7.0447e-02	2.7379e-01	1.5664e-01	-1.3785e-01	8.6046e+02
148	1.0567e-01	3.3055e-01	5.3169e-01	-3.4092e-01	2.4704e+02
149	6.7075e-02	1.2058e-01	-1.5279e-02	2.5456e-03	2.3032e+03
150	7.8575e-02	2.5773e-01	1.1478e-01	-1.9210e-01	9.4249e+02
151	9.0793e-02	1.8310e-01	1.3089e-01	-2.2123e-02	1.7523e+03
152	6.3961e-02	2.8516e-01	1.8761e-01	-1.3755e-01	6.1962e+02
153	3.0235e-02	3.5886e-01	1.8492e-02	-2.2143e-01	0.0000e+00
154	6.8876e-03	3.3409e-01	1.0048e-01	-1.2387e-01	5.0044e+02
155	2.0007e-02	3.3493e-01	1.3967e-01	-1.4536e-01	2.5640e+02
156	3.2615e-02	2.6439e-01	4.7493e-02	6.1063e-02	9.6134e+02
157	6.4872e-02	3.2272e-01	2.6223e-01	-2.3829e-01	2.5488e+02
158	6.0176e-02	2.9561e-01	1.2955e-01	-7.4001e-02	5.4133e+02
159	1.0357e-01	1.4539e-01	4.8928e-02	-1.3273e-01	1.9960e+03
160	9.3354e-02	2.3821e-01	6.4098e-02	-1.4476e-01	1.1319e+03
161	1.3738e-01	3.1773e-01	5.4197e-01	-4.9864e-01	3.2169e+02
162	6.7965e-02	3.3515e-01	3.3476e-01	-2.9821e-01	2.8746e+02
163	8.0669e-02	2.7959e-01	1.6285e-01	-2.1217e-01	6.9255e+02
164	6.0193e-03	3.5254e-01	1.2297e-01	-3.7366e-01	0.0000e+00
165	1.5960e-01	3.0092e-01	4.8096e-01	-2.6895e-01	3.9623e+02
166	1.6357e-01	3.2425e-01	5.5177e-01	-2.3053e-01	0.0000e+00
167	1.5177e-01	3.2167e-01	5.9328e-01	-3.1059e-01	2.6812e+02
168	9.2927e-02	3.4363e-01	2.9565e-01	-5.2706e-01	0.0000e+00
169	1.0560e-01	3.3844e-01	4.1801e-01	-3.7331e-01	0.0000e+00
170	1.2594e-01	3.2754e-01	4.7785e-01	-4.3256e-01	4.3747e+01
171	2.9911e-02	2.9312e-01	7.5773e-02	-2.2423e-01	6.5138e+02
172	8.4817e-02	3.4260e-01	2.2768e-01	-4.1027e-01	-1.2083e+01
173	1.4244e-01	2.2852e-01	1.4324e-01	-2.5680e-01	1.0783e+03
174	2.0159e-01	3.2746e-01	5.0031e-01	-2.0938e-01	-5.3628e+00
175	2.0504e-01	2.9589e-01	4.8945e-01	-3.1644e-01	3.8152e+02
176	2.9309e-01	3.1256e-01	4.3944e-01	-3.0005e-01	2.3714e+02
177	1.8958e-01	2.9032e-01	3.1856e-01	-2.5404e-01	5.5679e+02
178	2.0392e-01	3.2841e-01	3.5245e-01	-2.7962e-01	0.0000e+00
179	1.4686e-01	3.1266e-01	4.3767e-01	-3.3941e-01	1.5080e+02
180	1.7740e-01	2.8155e-01	4.3866e-01	-3.5563e-01	4.8970e+02
181	1.3308e-01	2.8392e-01	1.9363e-01	-2.9851e-01	5.7914e+02
182	1.5299e-01	2.9146e-01	3.2971e-01	-3.1141e-01	5.6444e+02
183	2.6838e-01	3.2250e-01	3.3327e-01	-2.8463e-01	1.0357e+02
184	2.2469e-01	2.7407e-01	2.9117e-01	-2.0595e-01	6.8937e+02
185	2.2918e-01	3.2581e-01	4.2130e-01	-2.5930e-01	1.5305e+02
186	2.2928e-01	3.2480e-01	3.8162e-01	-2.8363e-01	2.1992e+02
187	2.6123e-01	2.8302e-01	2.8338e-01	-2.7570e-01	5.0740e+02
188	2.4545e-01	3.1124e-01	4.0661e-01	-2.9811e-01	2.5191e+02
189	2.6616e-01	2.7386e-01	3.0735e-01	-2.6155e-01	6.1940e+02
190	1.8725e-01	2.5166e-01	1.2926e-01	-3.3741e-01	9.6549e+02
191	2.5055e-01	2.5831e-01	2.3002e-01	-2.9079e-01	7.7813e+02
192	2.1537e-02	4.9066e-02	7.7321e-03	1.5893e-01	2.9020e+03
193	1.5388e-02	3.7944e-02	6.7949e-02	8.5855e-02	3.2626e+03
194	3.2836e-02	7.8116e-02	-1.7489e-01	1.1605e-01	2.7921e+03
195	3.6217e-02	1.6736e-01	1.4408e-01	1.4870e-01	1.8655e+03
196	-2.7474e-04	1.1093e-01	2.1451e-01	1.3050e-01	2.2828e+03
197	6.9533e-03	1.1951e-01	-8.7706e-02	2.2423e-01	2.3281e+03
198	5.0860e-02	1.0171e-01	-7.0066e-02	1.6245e-02	2.5860e+03
199	3.8959e-02	1.8648e-01	1.3965e-01	1.6908e-01	1.7657e+03
200	8.6434e-03	1.4922e-01	2.9375e-02	1.3743e-01	2.2198e+03
201	7.1175e-02	8.3013e-02	-9.6458e-03	-1.3661e-02	2.7274e+03
202	4.5643e-02	1.5600e-01	8.5186e-02	1.5453e-02	2.1462e+03
203	1.0444e-01	7.7669e-02	-3.5258e-02	-1.2362e-01	2.7012e+03
204	5.1058e-02	1.4130e-01	-3.3679e-02	-1.8096e-02	2.0842e+03
205	1.6292e-02	1.1336e-01	-6.2323e-02	1.4624e-01	2.3999e+03
206	6.2510e-02	9.1165e-02	-7.1559e-02	-8.6320e-03	2.4900e+03
207	3.5376e-02	2.3435e-01	9.2894e-02	-4.3906e-02	1.1904e+03
208	7.6103e-03	1.8285e-01	9.8966e-03	6.9422e-02	1.8226e+03
209	2.5828e-02	2.0273e-01	7.6487e-02	-9.8466e-03	1.6340e+03
210	2.9813e-02	2.8569e-01	-3.0878e-02	-1.6422e-02	7.5513e+02
211	1.2592e-02	2.4293e-01	6.2301e-02	1.3883e-01	1.2802e+03
212	1.4977e-02	2.7947e-01	-3.9180e-02	2.8161e-02	7.1784e+02
213	1.9191e-03	2.7165e-01	5.3107e-02	7.8594e-02	9.6043e+02
214	4.1327e-02	2.8723e-01	1.0723e-01	-3.3291e-02	5.5887e+02
215	4.3914e-02	2.6578e-01	1.0488e-01	1.5994e-02	8.6271e+02
216	2.4671e-02	2.7290e-01	-9.8541e-03	3.2137e-02	9.6457e+02
217	7.2972e-02	2.2059e-01	6.3977e-02	1.1592e-02	1.3663e+03
218	7.1724e-02	3.0636e-01	1.9826e-01	-1.2698e-01	3.4411e+02
219	2.2624e-02	3.4490e-01	1.8501e-02	-3.9890e-02	-1.2529e+02
220	7.6450e-03	3.1407e-01	-1.9692e-02	-1.1224e-01	5.0448e+02
221	4.5362e-02	2.9585e-01	1.4944e-01	-3.4937e-02	5.8189e+02
222	9.5354e-02	2.0240e-01	8.8661e-02	-5.8693e-02	1.4613e+03
223	3.0594e-03	2.8570e-01	-2.3638e-02	1.3670e-02	8.7568e+02
224	4.6121e-02	2.7486e-01	1.0184e-01	-9.1583e-03	8.4349e+02
225	6.6551e-02	2.9020e-01	1.4617e-01	-1.1584e-01	5.9891e+02
226	8.5896e-02	2.2946e-01	1.0322e-01	-7.0451e-02	1.1706e+03
227	5.0116e-02	3.4416e-01	2.7091e-01	-3.7150e-01	2.8505e+02
228	1.3832e-01	2.9988e-01	3.6902e-01	-4.0299e-01	4.0801e+02
229	1.2600e-01	3.2733e-01	4.9169e-01	-4.4157e-01	2.4555e+01
230	6.6828e-02	2.6300e-01	2.1383e-02	-7.2513e-02	8.7329e+02
231	6.9752e-02	2.4359e-01	2.7299e-02	-1.8420e-01	1.0154e+03
232	9.0731e-02	3.1793e-01	2.9920e-01	-3.0257e-01	4.2200e+02
233	7.6301e-02	3.1354e-01	2.9825e-01	-2.5174e-01	3.9722e+02
234	7.2042e-02	3.2865e-01	3.0494e-01	-2.8818e-01	1.7521e+02
235	1.9826e-01	2.8900e-01	3.4064e-01	-3.7381e-01	5.1594e+02
236	1.1505e-01	3.0882e-01	3.6670e-01	-2.7399e-01	3.7478e+02
237	7.9497e-02	3.0298e-01	2.0390e-01	-1.9554e-01	5.2515e+02
238	1.3794e-01	2.1424e-01	1.5831e-01	-2.9563e-01	1.2319e+03
239	2.1626e-01	2.8858e-01	3.8657e-01	-3.2512e-01	4.0050e+02
240	2.2780e-01	2.9257e-01	3.6521e-01	-2.3101e-01	5.5488e+02
241	2.5868e-01	3.3011e-01	3.5333e-01	-3.4909e-01	0.0000e+00
242	1.9704e-01	3.0109e-01	4.6853e-01	-4.0254e-01	2.4779e+02
243	1.7156e-01	3.0039e-01	5.1581e-01	-3.3677e-01	3.3228e+02
244	3.5993e-02	3.0888e-01	3.7292e-02	-2.1222e-01	4.9900e+02
245	1.0696e-01	2.9620e-01	2.2044e-01	-2.8139e-01	5.7696e+02
246	1.5757e-01	2.3410e-01	1.1272e-01	-2.0621e-01	1.0836e+03
247	1.4893e-01	2.7123e-01	1.8737e-01	-2.6181e-01	7.3996e+02
248	1.7200e-01	2.8040e-01	2.3798e-01	-1.4672e-01	5.1314e+02
249	1.3080e-01	2.6639e-01	1.7165e-01	-2.6721e-01	8.5644e+02
250	1.1900e-01	2.5862e-01	1.3682e-01	-3.4095e-01	7.3170e+02
251	1.3587e-01	2.8267e-01	2.1596e-01	-2.3104e-01	5.6585e+02
252	2.3748e-01	2.6686e-01	2.8933e-01	-3.0407e-01	7.4531e+02
253	1.2598e-01	2.3469e-01	8.7357e-02	-2.8078e-01	1.1232e+03
254	2.2018e-01	2.7222e-01	2.9651e-01	-3.0001e-01	7.0439e+02
255	3.1183e-01	3.2050e-01	4.4311e-01	-3.4948e-01	0.0000e+00
256	3.4919e-02	6.9777e-02	-7.1846e-02	1.2722e-01	2.8972e+03
257	3.5392e-02	4.9395e-02	-5.3367e-02	4.4412e-02	3.0066e+03
258	1.3219e-03	1.3854e-02	-1.6844e-01	-2.5844e-02	3.2336e+03
259	3.1887e-02	1.5355e-01	8.5514e-02	7.6225e-02	2.0763e+03
260	1.4707e-02	7.2462e-02	7.2968e-02	1.6079e-01	2.7319e+03
261	3.3964e-03	8.3066e-02	4.2588e-03	4.6899e-02	2.6347e+03
262	2.3016e-02	3.2936e-02	-4.2629e-02	-2.0646e-02	3.2642e+03
263	6.3008e-02	1.6035e-01	5.7562e-02	-3.2667e-02	1.9963e+03
264	9.6498e-03	6.9222e-02	-9.0933e-02	5.0298e-02	2.8509e+03
265	5.4783e-02	6.2099e-02	-3.7042e-02	-3.0295e-02	2.9005e+03
266	4.8507e-02	1.6720e-01	1.6355e-01	1.0025e-01	1.8924e+03
267	1.1867e-01	1.8826e-02	-4.6198e-02	-5.4725e-02	3.2492e+03
268	5.1887e-02	1.5658e-01	-3.8997e-03	-5.3509e-03	2.1256e+03
269	2.6764e-02	9.9415e-02	2.6084e-04	5.6166e-03	2.5710e+03
270	1.3407e-01	8.0766e-02	-3.6723e-02	-2.1740e-02	2.7243e+03
271	9.4318e-02	1.7157e-01	2.9747e-02	-1.4572e-01	1.7431e+03
272	6.1727e-02	1.0953e-01	-3.1403e-02	-7.7156e-02	2.4486e+03
273	1.2149e-01	9.0777e-02	2.8484e-02	-7.7749e-02	2.5889e+03
274	4.5146e-02	1.8418e-01	-3.4601e-02	1.4058e-01	1.7598e+03
275	4.7759e-02	2.3192e-01	1.0160e-02	-1.3278e-02	1.3102e+03
276	6.8058e-02	1.8391e-01	-3.8839e-03	-7.7676e-02	1.6740e+03
277	5.6320e-02	2.4383e-01	1.1047e-01	-7.6000e-03	1.0779e+03
278	5.3940e-02	2.9809e-01	1.4591e-01	-1.6570e-01	6.0972e+02
279	2.0894e-02	3.5363e-01	1.1054e-01	5.3105e-02	0.0000e+00
280	4.9085e-02	3.2117e-01	2.5605e-01	-1.0740e-01	2.9139e+02
281	8.2724e-03	3.1613e-01	8.8509e-02	4.2441e-02	5.0229e+02
282	1.9326e-02	3.2224e-01	1.3729e-01	-9.1835e-02	3.1592e+02
283	6.9416e-02	2.3570e-01	1.2448e-01	-8.0886e-02	1.2003e+03
284	8.2281e-02	2.0041e-01	6.8813e-02	-7.4312e-02	1.4696e+03
285	4.6608e-02	2.1312e-01	2.0338e-02	-3.7969e-02	1.4443e+03
286	9.6039e-02	1.8753e-01	4.5160e-02	-1.5334e-01	1.6417e+03
287	9.9441e-02	1.5501e-01	6.4113e-03	-1.3537e-01	1.9027e+03
288	3.3263e-02	3.5550e-01	9.5416e-02	-1.3973e-01	0.0000e+00
289	1.1781e-01	1.5725e-01	-4.7430e-02	-1.7943e-01	1.9118e+03
290	6.1257e-02	2.5781e-01	2.9595e-02	1.1881e-02	9.0020e+02
291	1.0751e-01	1.5537e-01	-7.4362e-02	-1.8576e-01	1.9598e+03
292	5.5430e-02	3.2359e-01	2.4059e-01	-8.3397e-02	4.7629e+02
293	5.5109e-02	2.6973e-01	6.3503e-02	-1.0814e-01	8.2942e+02
294	6.8343e-02	2.2700e-01	1.9987e-02	-1.5053e-01	1.3416e+03
295	8.7619e-02	2.2953e-01	1.6946e-01	-2.0813e-01	1.1433e+03
296	7.8683e-02	2.3794e-01	5.6135e-02	-1.2889e-01	1.1042e+03
297	2.3552e-02	3.5170e-01	-3.7418e-02	-4.1978e-01	0.0000e+00
298	1.2553e-01	2.9385e-01	3.2994e-01	-2.8479e-01	4.0396e+02
299	1.0974e-01	1.8788e-01	3.3937e-02	-2.5239e-01	1.5697e+03
300	1.2282e-01	2.5447e-01	1.8553e-01	-2.5346e-01	8.2364e+02
301	5.0764e-02	3.0609e-01	1.0538e-01	-1.6437e-01	5.6211e+02
302	1.2986e-01	3.1551e-01	4.9213e-01	-3.5157e-01	2.2509e+02
303	9.9008e-02	2.5449e-01	1.1676e-02	-1.9945e-01	9.4455e+02
304	1.7202e-01	2.5352e-01	2.3740e-01	-3.0342e-01	8.3774e+02
305	1.9206e-01	3.0868e-01	4.5415e-01	-3.0614e-01	2.4769e+02
306	9.3785e-02	3.1400e-01	2.7342e-01	-3.7585e-01	3.4881e+02
307	2.1260e-01	3.1496e-01	4.2636e-01	-2.3368e-01	1.9211e+02
308	1.9075e-01	2.7829e-01	2.7510e-01	-3.2827e-01	7.3455e+02
309	2.4454e-01	2.8009e-01	2.8585e-01	-3.1351e-01	6.4007e+02
310	2.0887e-01	2.8540e-01	2.6761e-01	-2.7341e-01	4.6798e+02
311	1.2472e-01	3.0915e-01	4.4113e-01	-3.8016e-01	3.8737e+02
312	8.1513e-02	2.5673e-01	-2.6079e-02	-8.5038e-02	9.3367e+02
313	8.8769e-02	2.9558e-01	2.0085e-01	-3.4091e-01	5.2887e+02
314	2.7106e-01	3.0776e-01	3.8450e-01	-3.5372e-01	2.1466e+02
315	2.2693e-01	3.2698e-01	4.0403e-01	-2.5055e-01	7.4027e+01
316	7.6898e-02	3.4364e-01	2.3529e-01	-3.6834e-01	0.0000e+00
317	2.1686e-01	2.9974e-01	3.7871e-01	-2.0368e-01	4.5957e+02
318	2.9155e-01	3.2206e-01	3.6738e-01	-2.5684e-01	2.2278e+02
319	2.8062e-01	2.9932e-01	3.9608e-01	-2.8701e-01	3.8799e+02
320	9.2753e-03	1.9594e-02	5.4206e-02	9.8747e-02	3.3175e+03
321	1.0687e-02	5.2648e-02	-1.1406e-01	3.5395e-02	2.9062e+03
322	3.6187e-02	1.2371e-02	2.4676e-02	8.4883e-03	3.4051e+03
323	4.4591e-02	8.3980e-02	7.3435e-02	-2.4798e-02	2.7342e+03
324	1.1730e-01	3.5020e-03	1.3525e-02	1.0973e-01	3.3436e+03
325	5.6483e-03	9.8534e-02	3.8394e-02	5.7529e-02	2.5385e+03
326	9.3604e-03	1.2735e-01	1.2096e-02	1.5386e-01	2.2614e+03
327	1.9036e-02	1.5756e-01	1.3958e-01	2.2116e-01	2.0019e+03
328	4.5959e-03	1.8868e-01	-2.7303e-02	1.3252e-01	1.7268e+03
329	6.9016e-02	7.0041e-02	6.2147e-04	-4.2717e-02	2.7786e+03
330	9.8347e-03	1.4652e-01	-3.0680e-02	2.1331e-01	2.2112e+03
331	8.0462e-02	1.1236e-01	-8.8971e-03	-5.7665e-02	2.3159e+03
332	5.6030e-03	1.6996e-01	-7.5373e-02	1.1857e-01	1.9839e+03
333	9.3150e-03	3.3513e-02	-3.1821e-02	4.0738e-02	3.3981e+03
334	6.4453e-02	6.0379e-02	-4.6991e-02	2.1005e-02	2.8761e+03
335	5.8696e-02	1.1236e-01	-3.8379e-02	5.2065e-03	2.3670e+03
336	8.8603e-03	2.0120e-01	5.0220e-02	1.4903e-01	1.6499e+03
337	5.8775e-02	1.4773e-01	-1.9852e-03	2.1194e-02	2.0553e+03
338	7.2967e-02	1.0154e-01	-1.0214e-02	3.4640e-02	2.4561e+03
339	1.2165e-01	7.4018e-02	2.6107e-02	-4.0292e-02	2.6615e+03
340	6.5741e-02	2.0379e-01	6.9082e-02	-9.0609e-02	1.4665e+03
341	4.4055e-02	1.1797e-01	-3.0364e-02	1.0352e-01	2.3599e+03
342	3.1859e-02	2.1388e-01	-8.7109e-02	1.0412e-02	1.3595e+03
343	3.1306e-02	3.3406e-01	1.2460e-01	-6.6047e-02	4.8084e+02
344	3.3046e-02	3.0601e-01	1.2979e-01	-2.4302e-02	6.3234e+02
345	5.3405e-02	2.4095e-01	1.2375e-01	-7.1604e-02	1.1305e+03
346	3.3498e-02	3.1321e-01	1.4822e-01	-8.1736e-02	3.8132e+02
347	4.5807e-02	2.4984e-01	5.4148e-02	-3.1394e-03	1.0908e+03
348	6.6150e-02	1.4558e-01	4.4663e-02	-3.8542e-02	2.0246e+03
349	7.8193e-02	1.7194e-01	6.4140e-02	-8.4557e-02	1.7638e+03
350	8.5729e-02	1.4155e-01	2.7347e-02	-8.8303e-02	2.1348e+03
351	8.1636e-02	1.4742e-01	-1.8961e-02	-9.3330e-02	2.0470e+03
352	3.3656e-02	2.3013e-01	3.0906e-03	8.4616e-02	1.2399e+03
353	7.4415e-02	2.1216e-01	5.3440e-02	1.4853e-02	1.3100e+03
354	5.4805e-02	2.2838e-01	-4.1051e-03	6.3059e-04	1.2099e+03
355	7.0814e-02	1.9430e-01	2.0530e-02	-9.0089e-02	1.5914e+03
356	1.1457e-01	1.9888e-01	6.6351e-02	-2.0515e-01	1.4522e+03
357	1.1191e-01	1.6483e-01	-1.7401e-02	-2.1347e-01	1.8124e+03
358	5.2981e-02	2.5684e-01	5.0275e-02	-1.7907e-01	9.8828e+02
359	1.2520e-01	2.2263e-01	1.3344e-01	-2.4491e-01	1.2162e+03
360	1.0853e-01	2.6844e-01	1.6908e-01	-2.6837e-01	7.4257e+02
361	8.6785e-02	3.3222e-01	4.4604e-01	-2.5901e-01	4.3782e+02
362	9.7508e-02	2.1331e-01	4.8714e-02	-1.2463e-01	1.4059e+03
363	1.1444e-01	2.6916e-01	2.2964e-01	-2.8788e-01	6.3997e+02
364	8.6428e-02	2.4536e-01	1.0439e-01	-2.0467e-01	9.5027e+02
365	7.2586e-02	2.6930e-01	7.6657e-02	-7.3733e-02	8.4287e+02
366	4.1886e-02	2.5732e-01	-2.6649e-02	-6.8150e-03	9.5693e+02
367	1.1801e-01	2.2611e-01	8.2455e-02	-2.3945e-01	1.1591e+03
368	1.5053e-01	2.0620e-01	1.5060e-01	-2.7722e-01	1.3596e+03
369	1.0624e-01	2.2950e-01	9.7783e-02	-2.2412e-01	1.1355e+03
370	1.1660e-01	2.8505e-01	2.2432e-01	-2.6860e-01	5.9385e+02
371	1.0933e-01	3.1737e-01	4.4830e-01	-3.8547e-01	4.7270e+02
372	9.9495e-02	2.7021e-01	2.4544e-01	-1.4496e-01	8.6068e+02
373	1.6481e-01	3.1469e-01	3.6574e-01	-2.6712e-01	3.3239e+02
374	8.6857e-02	2.6642e-01	1.5243e-01	-2.7799e-01	7.0381e+02
375	1.9306e-01	3.2858e-01	3.7706e-01	-2.2174e-01	0.0000e+00
376	2.7702e-01	3.2644e-01	5.2313e-01	-3.3933e-01	0.0000e+00
377	1.4759e-01	2.8260e-01	1.9248e-01	-2.4108e-01	6.3361e+02
378	1.0961e-01	3.0342e-01	2.2853e-01	-2.9072e-01	4.6771e+02
379	1.3121e-01	3.0227e-01	3.3345e-01	-2.8282e-01	4.0451e+02
380	2.0263e-01	2.5244e-01	1.7041e-01	-2.0276e-01	8.4959e+02
381	1.7123e-01	2.4507e-01	1.3905e-01	-2.5668e-01	9.5950e+02
382	2.4067e-01	3.2252e-01	3.9892e-01	-2.0421e-01	1.7755e+02
383	2.6496e-01	3.0033e-01	3.7713e-01	-2.3078e-01	4.7141e+02
384	3.4958e-02	9.3569e-02	5.0472e-03	1.4766e-01	2.6229e+03
385	1.4898e-02	1.8377e-02	2.9420e-02	4.2455e-02	3.3925e+03
386	1.2883e-03	6.7639e-02	-6.0847e-02	7.0198e-03	3.0047e+03
387	3.8710e-02	5.8712e-02	-7.6428e-02	4.1198e-02	3.0038e+03
388	1.5695e-02	1.0026e-01	-7.2372e-02	1.4266e-01	2.6100e+03
389	5.7662e-02	9.1460e-02	-7.6835e-02	1.3228e-01	2.5426e+03
390	4.8845e-02	4.5429e-02	-6.8005e-02	-5.9900e-02	2.9867e+03
391	3.4128e-02	1.9002e-01	2.1216e-02	1.3902e-02	1.6263e+03
392	2.0650e-02	1.2223e-01	-2.4104e-02	6.0694e-02	2.3434e+03
393	5.0338e-02	6.4457e-02	-6.2798e-02	2.2388e-02	2.9138e+03
394	4.1742e-02	5.3760e-02	-8.1415e-02	5.3437e-02	2.9577e+03
395	1.8497e-02	8.5063e-02	1.5259e-02	2.8607e-01	2.6646e+03
396	8.2264e-02	7.7078e-02	-5.6356e-02	-1.2541e-02	2.6743e+03
397	1.1510e-01	3.5440e-02	-3.6001e-02	-9.2480e-02	3.1518e+03
398	4.1139e-02	1.3715e-01	-8.8357e-02	9.7028e-02	2.1362e+03
399	1.1451e-01	6.5278e-02	1.1622e-02	-9.0392e-02	2.8611e+03
400	9.8983e-02	6.8816e-02	-1.8804e-02	4.2118e-02	2.8443e+03
401	3.8229e-02	1.5284e-01	1.0276e-01	2.0395e-01	2.1653e+03
402	6.2419e-02	5.3201e-02	-9.8084e-02	-1.9758e-02	2.9388e+03
403	8.1492e-02	8.2591e-02	-1.4225e-01	-2.4046e-02	2.7132e+03
404	2.3005e-02	2.3971e-01	7.9099e-02	1.1113e-01	1.2543e+03
405	7.5776e-02	1.1898e-01	-3.4434e-03	-5.5662e-02	2.3011e+03
406	9.5086e-02	1.4001e-01	3.1130e-02	-1.2142e-01	2.0786e+03
407	8.0837e-02	1.5578e-01	9.0740e-02	3.7307e-02	1.9808e+03
408	6.2089e-02	2.1105e-01	6.4605e-02	1.6733e-02	1.3706e+03
409	7.7280e-02	1.3259e-01	-2.3879e-02	-9.1010e-02	2.2516e+03
410	8.1935e-02	1.6257e-01	-5.0635e-02	-5.5010e-02	1.8812e+03
411	2.9664e-02	2.5157e-01	1.0483e-02	7.4135e-02	1.1018e+03
412	8.9757e-02	1.1249e-01	-1.2132e-02	-2.0989e-01	2.3543e+03
413	6.7382e-02	1.6208e-01	7.1238e-03	-1.1010e-01	1.9366e+03
414	1.0274e-01	1.2088e-01	-6.1607e-02	-1.5217e-01	2.2132e+03
415	6.7275e-02	2.4904e-01	1.4805e-01	-3.0691e-02	9.3577e+02
416	1.1391e-01	1.2330e-01	2.3578e-02	-9.8539e-02	2.1819e+03
417	2.1157e-02	2.3039e-01	1.1071e-02	1.5588e-01	1.3239e+03
418	1.1436e-01	1.4393e-01	8.2856e-02	-1.9197e-01	2.0265e+03
419	1.3528e-01	1.3605e-01	1.7458e-02	-2.0214e-01	2.1062e+03
420	2.7810e-02	2.2078e-01	-1.0064e-01	7.5931e-02	1.3839e+03
421	1.2045e-01	1.8613e-01	1.3346e-01	-1.6548e-01	1.6123e+03
422	1.2033e-01	1.7437e-01	7.1745e-02	-1.7865e-01	1.7536e+03
423	8.6999e-02	2.1126e-01	9.4515e-02	-2.1731e-01	1.3413e+03
424	9.9694e-02	2.0054e-01	1.0856e-01	-1.3145e-01	1.4375e+03
425	1.6059e-01	1.8712e-01	1.3576e-01	-2.1353e-01	1.5468e+03
426	1.0588e-01	1.9240e-01	6.1982e-02	-1.2424e-01	1.4854e+03
427	1.2458e-01	2.1843e-01	4.8221e-02	-2.0460e-01	1.2229e+03
428	1.2485e-01	2.0020e-01	9.6646e-02	-2.2630e-01	1.5093e+03
429	1.0132e-01	2.2021e-01	8.5724e-02	-1.7341e-01	1.3129e+03
430	5.6324e-02	2.7765e-01	7.2145e-02	-2.4775e-02	7.6905e+02
431	1.1927e-01	2.0377e-01	1.1399e-01	-2.3452e-01	1.4448e+03
432	1.2297e-01	2.4489e-01	1.6518e-01	-2.6721e-01	9.1483e+02
433	7.9815e-02	2.8370e-01	1.1822e-01	-2.3096e-01	7.2359e+02
434	1.3894e-01	2.3623e-01	1.1090e-01	-2.9510e-01	1.0145e+03
435	4.9894e-02	3.4520e-01	1.5323e-01	-7.6350e-02	-9.0777e+02
436	7.2587e-02	3.0135e-01	1.9350e-01	-2.9572e-01	4.3206e+02
437	1.6399e-01	2.5327e-01	9.1199e-02	-1.2977e-01	7.9235e+02
438	1.5314e-01	2.8426e-01	3.5101e-01	-3.5571e-01	7.0026e+02
439	1.8537e-01	3.0518e-01	4.0663e-01	-1.8882e-01	3.8476e+02
440	9.7217e-02	2.8370e-01	1.1073e-01	-2.4440e-01	5.7456e+02
441	1.5989e-01	2.3651e-01	1.8185e-01	-2.4635e-01	1.0661e+03
442	1.3145e-01	2.4648e-01	1.5866e-01	-2.6686e-01	9.7547e+02
443	1.4764e-01	2.5093e-01	2.0085e-01	-2.6245e-01	8.8562e+02
444	1.8571e-01	2.6381e-01	2.1450e-01	-3.1005e-01	8.1837e+02
445	2.8356e-01	2.8784e-01	3.1795e-01	-2.8077e-01	5.0363e+02
446	2.8038e-01	2.7800e-01	2.4167e-01	-3.0082e-01	5.6469e+02
447	2.8023e-01	2.9369e-01	3.6056e-01	-2.6636e-01	4.4297e+02
448	4.5163e-02	-2.6673e-04	-5.4370e-02	4.7305e-02	3.2473e+03
449	4.8145e-02	1.7984e-02	7.3640e-02	1.3001e-02	3.2550e+03
450	1.7136e-02	1.0769e-01	-6.4448e-02	3.4617e-02	2.4939e+03
451	1.7951e-02	8.4731e-02	-7.7419e-02	-3.2845e-02	2.6321e+03
452	6.9090e-02	6.5747e-04	1.2615e-02	-9.2147e-02	3.4393e+03
453	2.2183e-02	6.7707e-02	-6.8470e-02	1.2603e-01	2.9614e+03
454	5.2708e-02	7.4952e-02	6.0502e-03	-4.7330e-02	2.8467e+03
455	2.5690e-02	2.1378e-02	-2.6852e-02	-8.9161e-02	3.3690e+03
456	7.5751e-03	9.1308e-02	-7.9177e-03	9.3578e-02	2.6372e+03
457	8.7226e-02	1.7184e-02	-1.4186e-01	-8.9447e-02	3.2209e+03
458	1.1797e-01	1.1425e-02	1.3271e-02	1.3749e-02	3.3175e+03
459	8.0507e-02	4.0596e-02	-4.2243e-02	-8.0610e-02	3.0380e+03
460	3.0916e-02	1.4710e-01	6.2180e-02	1.6237e-01	2.0826e+03
461	7.2728e-02	6.3068e-02	-1.0375e-03	-9.1665e-03	2.8391e+03
462	7.6973e-02	5.0874e-02	-1.6096e-01	-2.5003e-02	2.8951e+03
463	4.0302e-02	1.0320e-01	-7.0368e-02	1.2784e-01	2.4871e+03
464	5.6881e-02	1.7390e-01	4.7556e-02	7.5621e-04	1.8797e+03
465	9.1158e-02	6.5491e-02	-1.2635e-02	-1.0407e-01	2.8668e+03
466	1.0142e-01	5.7604e-02	-1.1863e-01	-1.1064e-01	2.8366e+03
467	6.4940e-02	1.3127e-01	2.4819e-02	-1.7681e-03	2.2820e+03
468	1.1010e-01	6.4277e-02	-3.4226e-03	-1.2354e-01	2.8061e+03
469	8.5510e-02	9.7376e-02	-4.0839e-02	-1.2049e-01	2.4434e+03
470	9.9831e-02	1.0872e-01	-5.9217e-02	-2.8574e-02	2.4573e+03
471	5.7968e-02	2.0302e-01	1.4754e-01	3.2431e-03	1.5080e+03
472	1.1192e-01	9.4928e-02	2.5461e-02	-1.6096e-01	2.4927e+03
473	1.2110e-01	1.3643e-01	4.7853e-03	-8.6161e-02	2.0121e+03
474	8.7449e-02	9.3961e-02	-5.9254e-02	-1.6651e-01	2.4885e+03
475	1.1113e-01	1.0862e-01	-2.6208e-02	-1.3249e-01	2.3134e+03
476	2.1166e-02	1.7780e-01	1.0298e-01	1.0658e-01	1.9558e+03
477	9.7532e-02	1.3012e-01	-5.0211e-02	-8.8657e-02	2.1711e+03
478	9.1529e-02	1.5538e-01	-5.6187e-02	-1.2655e-01	1.9121e+03
479	5.8132e-02	1.9337e-01	-9.4297e-02	-6.4721e-02	1.5747e+03
480	8.7785e-02	1.7068e-01	1.4641e-01	1.8994e-02	1.7789e+03
481	7.9563e-02	2.0229e-01	-2.1092e-02	-9.8386e-02	1.4412e+03
482	1.5029e-01	1.5121e-01	-1.2005e-03	-1.5088e-01	1.9222e+03
483	1.2386e-01	1.3134e-01	5.0235e-02	-2.3458e-01	2.1053e+03
484	1.4081e-01	1.5944e-01	6.2830e-02	-1.7126e-01	1.8403e+03
485	1.3162e-01	1.5509e-01	1.8928e-02	-2.3070e-01	1.8818e+03
486	1.2839e-01	1.8713e-01	5.3385e-02	-2.0050e-01	1.5340e+03
487	1.4921e-01	1.8300e-01	1.4029e-01	-1.6153e-01	1.6456e+03
488	1.3487e-01	1.7128e-01	8.1736e-02	-2.4030e-01	1.7727e+03
489	1.6149e-01	1.7104e-01	5.7775e-02	-2.1029e-01	1.7080e+03
490	1.6483e-01	1.8565e-01	1.2142e-01	-2.7901e-01	1.5649e+03
491	1.0548e-01	2.1462e-01	1.2721e-01	-1.4702e-01	1.3513e+03
492	6.1659e-02	2.2163e-01	-1.4724e-03	-5.7488e-02	1.2825e+03
493	8.4759e-02	2.1908e-01	2.8701e-02	-1.5141e-01	1.2029e+03
494	1.2762e-01	2.0998e-01	1.2915e-01	-2.2491e-01	1.3282e+03
495	9.0395e-02	2.7282e-01	2.1984e-01	-2.3554e-01	6.0942e+02
496	1.3681e-01	2.2902e-01	9.8664e-02	-2.2569e-01	1.1054e+03
497	1.1260e-01	2.1119e-01	1.0757e-01	-2.2729e-01	1.3448e+03
498	1.1205e-01	2.4806e-01	1.8770e-02	-2.7102e-01	9.1945e+02
499	1.0307e-01	2.4940e-01	1.6331e-01	-1.4767e-01	1.0138e+03