variables="k","x","y","vx","vy","pressure"
zone i=8064 j=1
0	2.2362e-02	1.2042e-01	2.8132e-03	1.6626e-01	2.7081e+03
1	1.4015e-04	1.1391e-01	5.1108e-02	1.3364e-01	3.0026e+03
2	1.8023e-02	7.1099e-02	1.3717e-02	1.3430e-01	3.2437e+03
3	1.6906e-02	1.0725e-01	-6.7048e-02	2.4249e-01	2.7966e+03
4	7.7039e-02	1.0664e-01	-3.9055e-02	5.8512e-02	2.8049e+03
5	1.8926e-02	1.3341e-01	-9.0654e-03	1.4538e-02	2.7527e+03
6	4.4152e-02	1.9285e-01	-4.7642e-03	1.1860e-01	1.8136e+03
7	4.4614e-02	1.8031e-01	5.2343e-02	1.9877e-01	2.1104e+03
8	-3.8879e-04	1.9519e-01	3.5660e-02	6.8855e-02	1.8439e+03
9	2.4798e-02	1.9256e-01	-3.8330e-02	1.1528e-01	1.9699e+03
10	5.6550e-02	1.8064e-01	1.2022e-01	3.9235e-02	2.0376e+03
11	1.3044e-03	2.4309e-01	-8.4032e-02	4.4585e-02	1.5388e+03
12	2.1434e-02	2.1036e-01	-8.5148e-02	1.6824e-01	1.7504e+03
13	3.5581e-02	3.0813e-01	1.3446e-01	7.6620e-02	7.5798e+02
14	1.2353e-02	1.9647e-01	2.3757e-02	1.8482e-01	1.8618e+03
15	5.2855e-02	2.2958e-01	7.4852e-03	-6.6458e-02	1.4368e+03
16	1.8818e-02	2.5712e-01	3.2101e-02	9.7034e-02	1.3163e+03
17	2.3588e-02	3.4127e-01	1.1031e-01	-7.2903e-02	4.8043e+02
18	3.3202e-02	2.7562e-01	2.0507e-03	1.2135e-02	1.0965e+03
19	6.3787e-03	3.3511e-01	-1.0830e-02	-2.1524e-02	5.3184e+02
20	1.9634e-02	2.8815e-01	4.0851e-02	4.1115e-02	9.1756e+02
21	1.4142e-02	2.7205e-01	-3.4478e-02	1.1581e-01	1.1051e+03
22	9.6399e-02	1.4283e-01	4.0403e-02	-1.9505e-01	2.2763e+03
23	8.7413e-02	2.4510e-01	1.5818e-01	-1.0504e-01	1.3954e+03
24	3.6274e-02	3.5717e-01	1.7580e-01	-1.5695e-01	4.1839e+02
25	-9.2803e-05	3.7253e-01	9.4397e-02	-2.7776e-01	2.8969e+02
26	1.2085e-01	1.9598e-01	6.5850e-02	-1.7834e-01	1.8133e+03
27	8.9808e-03	2.6757e-01	2.8778e-02	1.0692e-01	1.1789e+03
28	3.7715e-02	3.6430e-01	1.8687e-01	-1.1297e-01	8.7436e+01
29	6.7558e-02	3.2566e-01	1.7165e-01	-2.6255e-01	5.5446e+02
30	-2.4722e-04	3.8114e-01	3.7192e-01	-4.0899e-01	0.0000e+00
31	8.4991e-02	2.8305e-01	1.0324e-01	-1.8042e-01	9.3970e+02
32	1.2295e-01	3.3160e-01	3.6399e-01	-3.4538e-01	5.0958e+02
33	5.3233e-02	3.6913e-01	2.7724e-01	-1.8796e-01	3.5702e+02
34	1.2567e-01	3.4313e-01	4.0084e-01	-4.4990e-01	2.5755e+02
35	5.8483e-02	3.8713e-01	3.8165e-01	-3.1353e-01	6.2039e+02
36	1.4556e-01	3.1338e-01	1.1543e-01	-2.9614e-01	6.5731e+02
37	5.6204e-02	3.3201e-01	2.6461e-02	-6.9348e-02	3.7946e+02
38	2.0204e-01	3.2429e-01	2.2739e-01	-4.5369e-01	5.3230e+02
39	1.3398e-01	3.5671e-01	4.8162e-01	-3.2682e-01	6.7293e+01
40	1.6641e-01	3.5333e-01	3.9985e-01	-2.9826e-01	1.2382e+02
41	1.3593e-01	3.0839e-01	2.3326e-01	-3.2073e-01	8.8487e+02
42	1.1048e-01	2.9756e-01	1.7728e-01	-2.6536e-01	7.8177e+02
43	1.0416e-01	3.1937e-01	1.5031e-01	-2.5703e-01	5.2824e+02
44	1.6230e-01	3.1720e-01	3.8133e-01	-3.8968e-01	4.7402e+02
45	1.0823e-01	3.5895e-01	4.4135e-01	-3.9815e-01	-3.0334e+01
46	9.6166e-02	3.0623e-01	7.9374e-02	-2.5177e-01	7.6372e+02
47	7.5953e-02	3.7768e-01	3.1116e-01	-3.7614e-01	-1.2316e+02
48	1.0505e-01	3.6398e-01	4.2621e-01	-4.4287e-01	7.2770e+01
49	2.2973e-01	3.5293e-01	3.6621e-01	-3.0726e-01	1.8290e+02
50	2.0550e-01	3.6025e-01	4.9351e-01	-3.5036e-01	0.0000e+00
51	1.8149e-01	3.0064e-01	1.1011e-01	-2.6547e-01	7.8816e+02
52	1.4343e-01	2.8677e-01	5.2688e-02	-2.7926e-01	8.2908e+02
53	2.8507e-01	3.5401e-01	3.9920e-01	-3.1346e-01	8.4299e+01
54	1.7490e-01	2.9487e-01	2.1244e-01	-2.8592e-01	7.8935e+02
55	1.6126e-01	3.0759e-01	1.6968e-01	-3.3076e-01	6.1391e+02
56	1.2228e-01	2.9980e-01	7.0612e-02	-3.2961e-01	6.9609e+02
57	2.6322e-01	3.1808e-01	2.2361e-01	-3.1003e-01	4.8970e+02
58	1.9675e-01	3.5424e-01	4.9857e-01	-3.2075e-01	1.0593e+02
59	1.0412e-01	3.0962e-01	2.1271e-01	-2.4850e-01	7.0993e+02
60	2.5409e-01	3.5195e-01	3.6933e-01	-2.5835e-01	2.4695e+02
61	1.9387e-01	2.9723e-01	1.7519e-01	-3.5728e-01	6.9811e+02
62	2.1647e-01	3.4012e-01	3.3366e-01	-3.2655e-01	2.9162e+02
63	2.5278e-01	3.3907e-01	4.0036e-01	-2.6239e-01	2.5373e+02
64	2.4242e-02	-6.9087e-04	9.0615e-02	8.9662e-03	4.0520e+03
65	-5.9514e-04	3.7585e-02	-1.1246e-01	3.5651e-02	3.4937e+03
66	4.5032e-03	-6.7932e-05	-1.7411e-03	1.6726e-01	4.1594e+03
67	6.1286e-02	1.2906e-01	-1.0345e-01	-4.6716e-03	2.6177e+03
68	3.8442e-02	1.0899e-01	-8.7732e-02	8.1012e-02	2.9023e+03
69	9.2341e-03	1.4980e-01	6.8595e-02	5.5670e-02	2.5261e+03
70	2.0343e-02	1.5183e-01	1.2998e-01	1.1135e-01	2.6323e+03
71	5.7550e-02	1.6679e-01	1.0942e-01	7.0339e-03	2.1286e+03
72	2.7998e-02	1.7287e-01	-2.9684e-02	9.7185e-02	2.0869e+03
73	2.2419e-02	1.8942e-01	-3.5365e-02	-2.0523e-02	2.0169e+03
74	4.2613e-02	2.0918e-01	1.9874e-02	-2.5533e-03	1.7196e+03
75	8.4518e-03	2.0856e-01	1.1251e-02	1.3019e-01	1.8557e+03
76	7.7829e-02	1.9319e-01	-1.6843e-03	-6.9054e-02	1.9119e+03
77	7.3586e-03	2.4972e-01	2.8071e-02	1.3280e-01	1.3701e+03
78	1.3777e-02	2.5645e-01	-1.9916e-02	1.1278e-01	1.3213e+03
79	8.9556e-03	2.9912e-01	-6.6712e-02	6.6826e-02	7.7876e+02
80	6.2833e-03	2.0931e-01	-7.1055e-02	1.0019e-01	1.8443e+03
81	2.6414e-02	1.7388e-01	4.0617e-02	-3.4880e-02	2.0954e+03
82	1.4683e-02	2.3505e-01	1.1968e-02	1.3795e-01	1.5543e+03
83	2.7313e-02	2.2646e-01	7.5738e-02	1.4992e-01	1.6397e+03
84	5.7434e-03	2.9187e-01	8.0348e-02	1.2790e-01	8.6999e+02
85	4.2233e-02	3.5140e-01	2.1860e-01	-1.3015e-01	4.5526e+02
86	6.5155e-02	3.4521e-01	2.9748e-01	-2.4482e-01	4.0335e+02
87	8.4017e-02	1.9747e-01	2.3073e-02	-9.8134e-02	1.7444e+03
88	4.1513e-02	2.9174e-01	4.1635e-02	-4.4144e-03	8.6762e+02
89	1.0476e-02	3.3074e-01	4.2963e-02	-1.3909e-02	5.0082e+02
90	4.4832e-02	3.8359e-01	2.8771e-01	-1.3593e-01	-2.7923e+02
91	5.8780e-02	1.9189e-01	-7.9412e-02	-1.2330e-01	1.8195e+03
92	2.5958e-02	3.6983e-01	8.3849e-02	-1.9617e-01	3.6468e+02
93	6.1753e-02	3.1389e-01	2.1501e-01	-1.8112e-01	7.0672e+02
94	8.4585e-02	2.6215e-01	3.7841e-02	-9.8971e-02	1.1058e+03
95	1.1886e-01	2.0757e-01	1.3654e-01	-1.8598e-01	1.6541e+03
96	7.7263e-02	3.6137e-01	3.6063e-01	-2.0612e-01	4.2504e+02
97	2.3615e-02	3.9635e-01	1.6005e-01	-2.5753e-01	0.0000e+00
98	2.1478e-02	3.5690e-01	1.3526e-01	-2.7560e-01	2.9278e+02
99	5.8697e-02	3.8797e-01	3.8093e-01	-3.6340e-01	0.0000e+00
100	2.8981e-02	3.9482e-01	1.8332e-01	-4.1927e-01	0.0000e+00
101	7.3852e-02	3.4077e-01	1.4250e-01	-2.2758e-01	3.2297e+02
102	1.5975e-01	3.5356e-01	4.0422e-01	-3.6655e-01	4.0383e+02
103	1.1938e-01	3.5663e-01	5.4019e-01	-4.0827e-01	3.5695e+02
104	4.8350e-02	3.7167e-01	2.7954e-01	-1.1355e-01	3.2335e+02
105	8.1461e-02	3.6410e-01	4.1426e-01	-3.7805e-01	3.7156e+02
106	9.8409e-02	3.4539e-01	3.6625e-01	-3.3429e-01	3.5822e+02
107	1.2535e-01	3.6085e-01	5.1642e-01	-3.3916e-01	0.0000e+00
108	1.8017e-01	3.4346e-01	4.3159e-01	-2.8103e-01	1.7527e+02
109	1.3040e-01	3.6034e-01	3.5340e-01	-3.2172e-01	0.0000e+00
110	1.6808e-01	3.1015e-01	2.4985e-01	-3.4478e-01	6.9386e+02
111	2.1591e-01	3.3668e-01	3.0453e-01	-3.3250e-01	3.7240e+02
112	2.0803e-01	3.4431e-01	3.3735e-01	-2.6568e-01	3.3972e+02
113	1.6967e-01	3.3388e-01	2.4787e-01	-2.5607e-01	3.9699e+02
114	1.8903e-01	3.4033e-01	4.1889e-01	-2.5522e-01	4.7307e+02
115	1.0810e-01	3.3194e-01	2.7082e-01	-3.2739e-01	3.7354e+02
116	1.8930e-01	3.3718e-01	3.7618e-01	-2.2535e-01	3.5597e+02
117	1.8411e-01	3.2380e-01	3.1218e-01	-3.2267e-01	4.1919e+02
118	1.7984e-01	3.5714e-01	4.1783e-01	-2.6486e-01	2.4266e+02
119	2.3191e-01	3.3425e-01	3.8637e-01	-2.1810e-01	4.4225e+02
120	1.9276e-01	3.3128e-01	3.4109e-01	-3.1221e-01	3.0062e+02
121	2.0713e-01	3.3438e-01	4.1812e-01	-4.0668e-01	3.7539e+02
122	2.4730e-01	3.5436e-01	3.3494e-01	-3.1079e-01	1.9569e+02
123	2.1022e-01	3.2052e-01	2.5146e-01	-3.5040e-01	5.8994e+02
124	1.8492e-01	2.8759e-01	2.5869e-01	-3.0275e-01	8.4430e+02
125	2.9371e-01	3.5209e-01	3.8098e-01	-2.9915e-01	1.5319e+02
126	2.7200e-01	2.8691e-01	1.7917e-01	-2.8995e-01	8.0309e+02
127	2.1529e-01	3.0409e-01	2.5366e-01	-3.5181e-01	6.3536e+02
128	5.1967e-02	8.3625e-02	1.0112e-02	-8.5009e-02	3.0189e+03
129	-1.0663e-04	1.4424e-01	1.0865e-01	1.0998e-01	2.5865e+03
130	3.6752e-02	1.1056e-01	-4.2849e-02	1.6296e-01	2.8649e+03
131	7.4894e-03	4.4572e-02	-5.1446e-02	-2.4190e-03	3.4661e+03
132	1.4030e-02	5.3310e-02	-4.0299e-02	-3.5138e-02	3.5597e+03
133	3.5867e-02	1.4215e-01	1.3487e-01	-2.0349e-02	2.4665e+03
134	4.8084e-02	1.5862e-01	-4.6092e-02	6.9755e-02	2.3442e+03
135	2.8406e-02	7.2530e-02	1.1331e-03	4.7824e-02	3.2675e+03
136	1.8216e-02	1.8312e-01	7.0850e-02	1.4251e-01	2.0777e+03
137	1.2929e-02	2.3911e-01	7.9713e-03	1.5156e-01	1.5485e+03
138	2.3379e-02	2.4768e-01	5.8472e-02	6.5619e-02	1.3532e+03
139	5.4621e-02	1.2955e-01	2.9582e-02	-6.3324e-02	2.7415e+03
140	1.0865e-03	1.6029e-01	-1.3779e-01	8.2830e-02	2.1784e+03
141	5.3255e-02	1.0721e-01	-1.0322e-01	2.0792e-02	2.7696e+03
142	2.1179e-03	2.2324e-01	-1.0117e-02	1.3440e-01	1.5739e+03
143	3.8608e-02	1.7000e-01	1.7758e-01	1.8914e-01	2.1920e+03
144	3.6303e-02	1.9314e-01	-4.5904e-02	4.4170e-02	1.8608e+03
145	7.1281e-02	1.5875e-01	-5.3242e-03	-1.2062e-01	2.3009e+03
146	1.6882e-02	3.0416e-01	1.4878e-02	1.6312e-01	7.5095e+02
147	5.7791e-02	2.8975e-01	5.6562e-02	-1.3400e-01	8.7666e+02
148	5.4906e-02	3.6001e-01	3.2118e-01	-1.3375e-01	6.3873e+01
149	7.1319e-02	1.2704e-01	-2.0900e-02	-5.8286e-02	2.4111e+03
150	6.6915e-02	2.8083e-01	9.0568e-02	-1.8248e-01	1.0952e+03
151	7.4874e-02	1.8064e-01	1.0988e-01	7.4638e-02	1.9836e+03
152	4.5766e-02	2.9530e-01	1.3049e-01	-2.4047e-02	8.4659e+02
153	2.5190e-02	3.7174e-01	1.2967e-01	-1.0032e-01	3.6444e+02
154	2.5522e-03	3.4575e-01	1.6688e-02	-1.7450e-01	5.4343e+02
155	6.1042e-03	3.6213e-01	1.1239e-01	-2.3471e-01	3.8336e+02
156	3.0450e-02	2.5535e-01	-7.9093e-03	5.8698e-02	1.2269e+03
157	3.4586e-02	3.3831e-01	2.0287e-01	-2.4008e-02	3.5910e+02
158	4.9006e-02	3.0707e-01	7.1126e-02	-1.5997e-01	7.2442e+02
159	1.0124e-01	1.6011e-01	4.0114e-02	-1.5192e-01	2.0776e+03
160	8.6414e-02	2.5189e-01	9.7247e-02	-1.1809e-01	1.2445e+03
161	8.2183e-02	3.7960e-01	4.1108e-01	-4.5938e-01	0.0000e+00
162	3.1875e-02	3.9051e-01	1.9071e-01	-5.2709e-01	0.0000e+00
163	6.4559e-02	2.9688e-01	8.7969e-02	-7.3461e-02	8.2652e+02
164	1.1357e-03	3.8528e-01	-2.3268e-02	-1.7931e-01	0.0000e+00
165	1.0348e-01	3.4209e-01	4.0078e-01	-3.1214e-01	3.9623e+02
166	1.0288e-01	3.6510e-01	4.5505e-01	-4.6052e-01	1.5247e+02
167	8.9031e-02	3.7738e-01	3.6875e-01	-5.1864e-01	0.0000e+00
168	6.0495e-02	3.8911e-01	2.5690e-01	-1.9258e-01	0.0000e+00
169	6.4353e-02	3.7488e-01	1.7565e-01	-2.1063e-01	2.9261e+02
170	8.0107e-02	3.7587e-01	3.5631e-01	-2.9193e-01	4.1727e+00
171	2.4821e-02	3.1468e-01	-3.7547e-02	-1.2616e-01	6.0256e+02
172	5.7023e-02	3.8714e-01	2.4539e-01	-3.0617e-01	7.1791e+02
173	1.2846e-01	2.5863e-01	1.1051e-01	-2.4728e-01	1.1171e+03
174	1.4314e-01	3.5719e-01	5.0408e-01	-3.2730e-01	2.2089e+02
175	1.4779e-01	3.3494e-01	4.6496e-01	-3.4848e-01	2.8933e+02
176	2.3960e-01	3.4667e-01	4.2396e-01	-2.8411e-01	1.7318e+02
177	1.5044e-01	3.1933e-01	2.9390e-01	-2.4741e-01	4.9346e+02
178	1.6019e-01	3.5999e-01	3.6627e-01	-2.7739e-01	8.4123e+01
179	9.9939e-02	3.6040e-01	4.0502e-01	-4.7214e-01	1.7245e+02
180	1.2894e-01	3.2588e-01	3.4231e-01	-3.3907e-01	5.8246e+02
181	1.1153e-01	3.2231e-01	1.7467e-01	-3.5937e-01	4.5278e+02
182	1.1536e-01	3.3396e-01	3.4462e-01	-4.2890e-01	4.8868e+02
183	2.3409e-01	3.6036e-01	2.5842e-01	-3.0986e-01	0.0000e+00
184	2.0048e-01	3.0590e-01	1.6872e-01	-3.0754e-01	6.0193e+02
185	1.7938e-01	3.6101e-01	3.8671e-01	-2.8987e-01	0.0000e+00
186	1.8585e-01	3.6126e-01	2.9700e-01	-3.1745e-01	0.0000e+00
187	2.2929e-01	3.1896e-01	2.6714e-01	-3.3143e-01	5.3441e+02
188	1.9761e-01	3.5149e-01	3.7739e-01	-3.9372e-01	2.6577e+02
189	2.3133e-01	3.0797e-01	2.6800e-01	-2.9746e-01	6.2559e+02
190	1.6810e-01	2.9598e-01	1.5651e-01	-3.9674e-01	8.2233e+02
191	2.2323e-01	2.9332e-01	1.9715e-01	-3.0020e-01	7.3855e+02
192	1.6611e-02	3.6141e-02	5.8234e-02	1.7742e-02	3.6651e+03
193	1.1456e-02	2.5911e-02	-5.5820e-02	6.0821e-02	3.8660e+03
194	3.6970e-02	6.8983e-02	8.3185e-02	1.4820e-01	3.2868e+03
195	2.3441e-02	1.4747e-01	3.4673e-02	2.0806e-01	2.5419e+03
196	-2.0852e-04	9.7464e-02	2.1412e-01	8.4525e-02	2.7268e+03
197	1.5064e-02	1.0231e-01	-4.7416e-02	1.1495e-01	2.7855e+03
198	6.2000e-02	9.9103e-02	-7.7103e-02	-9.6905e-03	2.8832e+03
199	2.9672e-02	1.5719e-01	-2.1497e-02	2.3028e-01	2.3015e+03
200	2.0078e-03	1.2822e-01	1.9559e-01	1.8414e-01	2.5283e+03
201	7.6170e-02	8.7294e-02	-4.8128e-02	-3.9248e-02	2.9835e+03
202	4.0814e-02	1.4278e-01	2.7401e-02	1.8280e-01	2.4321e+03
203	1.0223e-01	8.3498e-02	6.3375e-02	-3.4950e-02	2.9229e+03
204	4.8499e-02	1.4200e-01	4.4346e-02	5.0424e-02	2.3879e+03
205	2.8424e-02	1.0504e-01	-8.2498e-02	-1.0334e-03	2.9587e+03
206	6.7808e-02	9.3477e-02	-8.5917e-02	-5.2623e-02	2.9291e+03
207	2.8750e-02	2.3432e-01	4.1581e-02	4.6195e-03	1.5364e+03
208	9.9445e-03	1.6665e-01	-7.2570e-04	1.6323e-01	2.3140e+03
209	2.2447e-02	2.0386e-01	2.8318e-02	4.0210e-02	1.7987e+03
210	3.2096e-02	2.8541e-01	-1.6554e-03	1.1067e-02	9.5982e+02
211	1.0668e-02	2.2567e-01	1.0008e-02	1.4976e-01	1.5541e+03
212	2.3500e-02	2.7474e-01	-9.2311e-02	4.3072e-02	1.0242e+03
213	6.5675e-04	2.6563e-01	8.8281e-02	5.1359e-02	1.1806e+03
214	3.6382e-02	2.9419e-01	9.4152e-03	-3.8872e-02	9.0339e+02
215	3.7859e-02	2.6139e-01	-2.7861e-02	7.8683e-02	1.1968e+03
216	2.6418e-02	2.6527e-01	9.2723e-03	1.0389e-01	1.2548e+03
217	6.6608e-02	2.2040e-01	7.6044e-02	2.3233e-02	1.6253e+03
218	4.7197e-02	3.1519e-01	1.7083e-01	1.1062e-02	6.0692e+02
219	1.5982e-02	3.6138e-01	7.6570e-02	-1.5318e-01	1.9835e+02
220	1.0350e-02	3.1656e-01	1.7973e-02	7.3296e-02	7.0747e+02
221	2.6050e-02	3.0172e-01	1.4932e-01	-8.3276e-02	7.7152e+02
222	8.9446e-02	2.1088e-01	6.8365e-02	-5.6537e-02	1.6626e+03
223	2.3794e-03	2.8298e-01	-4.5388e-02	5.7609e-02	9.3981e+02
224	3.7278e-02	2.7293e-01	2.0179e-02	2.6658e-02	1.1931e+03
225	5.6687e-02	3.0209e-01	5.5957e-02	-9.8810e-02	7.8141e+02
226	7.7167e-02	2.4212e-01	7.5218e-02	-2.1670e-01	1.3290e+03
227	2.7692e-02	3.8542e-01	1.7612e-01	-2.8325e-01	5.3624e+02
228	9.7573e-02	3.4902e-01	3.2684e-01	-4.4014e-01	1.7919e+02
229	7.8494e-02	3.8201e-01	3.3370e-01	-4.4062e-01	0.0000e+00
230	6.4178e-02	2.6728e-01	6.1885e-02	-1.5513e-02	1.1527e+03
231	6.9321e-02	2.6571e-01	-1.8718e-03	-2.0144e-01	1.2198e+03
232	5.7925e-02	3.4594e-01	2.2921e-01	-1.8614e-01	3.9500e+02
233	5.1717e-02	3.4082e-01	1.5232e-01	-1.9675e-01	4.2367e+02
234	3.9373e-02	3.7080e-01	2.1551e-01	-3.8964e-01	3.5582e+01
235	1.5534e-01	3.3717e-01	4.1793e-01	-4.2769e-01	4.1751e+02
236	7.8357e-02	3.4025e-01	2.9294e-01	-2.6488e-01	3.3143e+02
237	5.9860e-02	3.2248e-01	1.5763e-01	-1.5599e-01	4.4302e+02
238	1.2213e-01	2.4623e-01	1.0082e-01	-2.7886e-01	1.2625e+03
239	1.6570e-01	3.3295e-01	4.3235e-01	-4.1275e-01	4.2446e+02
240	1.9116e-01	3.2134e-01	2.2522e-01	-2.5372e-01	5.4115e+02
241	2.1607e-01	3.6016e-01	3.6630e-01	-1.5838e-01	-1.5424e+00
242	1.4338e-01	3.4950e-01	4.4022e-01	-3.8480e-01	2.7604e+02
243	1.1131e-01	3.5018e-01	4.6477e-01	-4.1717e-01	1.8655e+02
244	3.6157e-02	3.2614e-01	-5.4967e-03	-9.4275e-02	5.9432e+02
245	8.5474e-02	3.2763e-01	1.6962e-01	-1.8840e-01	5.2936e+02
246	1.4433e-01	2.6086e-01	1.1193e-01	-2.2781e-01	1.0373e+03
247	1.2737e-01	3.1178e-01	2.3545e-01	-3.5678e-01	6.4456e+02
248	1.4884e-01	3.0576e-01	1.2528e-01	-2.5246e-01	7.1888e+02
249	1.1764e-01	2.9635e-01	6.7241e-02	-2.5927e-01	8.6926e+02
250	9.9360e-02	2.9830e-01	1.3521e-01	-2.9179e-01	6.8550e+02
251	1.1391e-01	3.1021e-01	9.6184e-02	-2.3104e-01	6.6465e+02
252	1.9868e-01	3.0767e-01	3.7368e-01	-3.5115e-01	7.0157e+02
253	1.1699e-01	2.6889e-01	7.2022e-02	-2.8390e-01	1.0298e+03
254	1.8301e-01	3.1251e-01	2.7627e-01	-3.6186e-01	6.4938e+02
255	2.6100e-01	3.5781e-01	3.9480e-01	-2.7718e-01	0.0000e+00
256	4.2475e-02	6.3471e-02	-3.1011e-02	-2.6872e-02	3.2993e+03
257	3.7158e-02	4.0074e-02	3.5482e-02	7.8394e-02	3.5798e+03
258	4.2570e-03	2.2199e-02	1.1992e-01	-4.4741e-02	3.6722e+03
259	2.1679e-02	1.3622e-01	5.3498e-02	2.4827e-01	2.6275e+03
260	9.5545e-03	6.2858e-02	4.8651e-02	9.5202e-02	3.3046e+03
261	1.9336e-03	7.2349e-02	-1.5962e-01	8.3179e-02	3.1868e+03
262	2.5963e-02	2.9270e-02	-3.4926e-02	5.4024e-02	3.8256e+03
263	5.7989e-02	1.6211e-01	1.8977e-02	-2.7722e-02	2.1907e+03
264	1.9787e-02	6.3659e-02	-1.6093e-01	1.0378e-01	3.3541e+03
265	5.4990e-02	6.6975e-02	1.1484e-02	-7.3847e-02	3.2334e+03
266	3.5659e-02	1.5702e-01	7.9823e-02	1.0733e-01	2.2560e+03
267	1.1888e-01	2.0063e-02	3.6555e-02	2.0101e-03	3.6495e+03
268	4.8426e-02	1.5015e-01	4.7430e-03	1.2475e-01	2.3490e+03
269	2.9136e-02	9.4436e-02	5.7418e-03	1.1083e-01	3.0120e+03
270	1.3368e-01	8.5501e-02	6.5370e-02	-6.2652e-02	2.8734e+03
271	8.5335e-02	1.8607e-01	1.0300e-01	-4.9598e-02	1.8609e+03
272	6.4528e-02	1.1484e-01	4.8536e-02	-8.0637e-02	2.5974e+03
273	1.1608e-01	9.8600e-02	1.0260e-01	-7.0562e-02	2.7721e+03
274	4.2924e-02	1.6658e-01	3.1694e-02	1.2354e-01	2.2721e+03
275	3.8999e-02	2.2925e-01	1.0508e-01	4.8271e-02	1.5730e+03
276	6.1787e-02	1.9129e-01	7.0455e-02	-3.2080e-02	1.8570e+03
277	4.7555e-02	2.4112e-01	7.6966e-02	4.4989e-02	1.5274e+03
278	3.5978e-02	3.1147e-01	1.4447e-01	-4.9736e-02	7.2323e+02
279	9.5993e-03	3.4772e-01	8.3704e-02	4.7644e-02	2.9256e+02
280	2.0356e-02	3.2825e-01	2.1228e-01	1.9723e-02	3.9810e+02
281	-3.4821e-07	3.0894e-01	8.3275e-02	7.0912e-02	7.4828e+02
282	8.1398e-03	3.2201e-01	1.0305e-01	8.2258e-02	6.4446e+02
283	5.9454e-02	2.4034e-01	3.7896e-02	-8.5254e-03	1.3938e+03
284	7.3510e-02	2.0538e-01	4.0648e-02	-4.9993e-02	1.7752e+03
285	5.3732e-02	2.2057e-01	-5.4630e-02	-7.5304e-02	1.5458e+03
286	8.9045e-02	2.0305e-01	9.0333e-02	-1.2419e-01	1.7065e+03
287	9.4395e-02	1.7950e-01	3.4766e-02	-2.6480e-01	1.9376e+03
288	1.9487e-02	3.6148e-01	1.5586e-01	1.4994e-02	2.0662e+02
289	1.1430e-01	1.7791e-01	6.1234e-02	-1.3311e-01	1.9258e+03
290	5.4783e-02	2.5813e-01	8.9148e-02	-5.6077e-02	1.2322e+03
291	1.1448e-01	1.7871e-01	-6.2846e-03	-1.6763e-01	1.9181e+03
292	3.2448e-02	3.2858e-01	1.1595e-01	1.0627e-02	5.1000e+02
293	4.8050e-02	2.7784e-01	4.6416e-02	-6.4595e-02	1.0741e+03
294	6.5364e-02	2.4504e-01	4.5823e-02	-1.1730e-01	1.3779e+03
295	7.4909e-02	2.5507e-01	2.8605e-02	-1.8782e-01	1.2578e+03
296	6.8474e-02	2.4928e-01	6.4621e-02	-1.7570e-02	1.3816e+03
297	2.4685e-02	3.8781e-01	4.0105e-02	-2.0595e-01	0.0000e+00
298	8.9352e-02	3.2386e-01	2.2742e-01	-1.3102e-01	5.0520e+02
299	1.0851e-01	2.1535e-01	4.4196e-02	-2.4863e-01	1.5693e+03
300	1.0120e-01	2.8799e-01	1.5080e-01	-3.3567e-01	7.7125e+02
301	4.6216e-02	3.2105e-01	-5.5768e-02	-7.8530e-02	5.3420e+02
302	8.1381e-02	3.5328e-01	2.7246e-01	-2.2578e-01	3.3252e+02
303	9.6531e-02	2.8458e-01	4.2457e-02	-3.1993e-01	9.6546e+02
304	1.4498e-01	2.9434e-01	2.0113e-01	-3.4252e-01	8.7596e+02
305	1.3826e-01	3.4514e-01	4.2196e-01	-3.2020e-01	1.9802e+02
306	6.2653e-02	3.5580e-01	2.3409e-01	-3.2032e-01	1.6668e+02
307	1.6400e-01	3.4526e-01	3.6712e-01	-2.2850e-01	1.1902e+02
308	1.5076e-01	3.2509e-01	3.3228e-01	-4.1002e-01	4.2015e+02
309	2.1058e-01	3.1521e-01	2.4908e-01	-3.0294e-01	5.9462e+02
310	1.7491e-01	3.2109e-01	3.2467e-01	-2.7826e-01	6.7098e+02
311	7.9758e-02	3.5378e-01	2.8335e-01	-3.2338e-01	3.3844e+02
312	8.5697e-02	2.7595e-01	-2.7934e-03	-2.0281e-01	9.8565e+02
313	7.1580e-02	3.3348e-01	1.0159e-01	-3.1165e-01	3.1843e+02
314	2.2844e-01	3.5037e-01	3.3965e-01	-3.5722e-01	1.9103e+02
315	1.7731e-01	3.5715e-01	4.0536e-01	-2.6107e-01	2.1855e+02
316	4.2712e-02	3.8540e-01	2.8656e-01	-3.0607e-01	-1.3459e+02
317	1.6880e-01	3.3075e-01	3.7247e-01	-3.2653e-01	4.6895e+02
318	2.4651e-01	3.6177e-01	3.8328e-01	-3.1322e-01	0.0000e+00
319	2.3615e-01	3.4035e-01	3.4984e-01	-3.6239e-01	3.1524e+02
320	1.4100e-02	1.4357e-02	-1.0077e-01	1.1373e-02	3.9094e+03
321	1.9897e-02	4.6026e-02	-3.8256e-02	1.4108e-01	3.5726e+03
322	4.0609e-02	1.9424e-02	-5.7725e-02	-1.0642e-02	3.7871e+03
323	3.9854e-02	8.1141e-02	5.8453e-02	3.4028e-02	3.1218e+03
324	1.1398e-01	5.7084e-03	2.9069e-02	5.2186e-03	3.6518e+03
325	9.5565e-03	9.0952e-02	1.6192e-02	-7.6751e-03	2.9495e+03
326	1.0455e-02	1.1165e-01	-1.0937e-01	1.1236e-01	2.9241e+03
327	1.1028e-02	1.3625e-01	3.3507e-02	1.8156e-01	2.7460e+03
328	5.9717e-03	1.7831e-01	1.4933e-02	1.0208e-01	2.2477e+03
329	7.0387e-02	7.7116e-02	-2.3987e-02	-7.4021e-02	3.1173e+03
330	1.2881e-02	1.2413e-01	2.5504e-02	1.7845e-01	2.7367e+03
331	7.6634e-02	1.1388e-01	1.9219e-02	-1.2486e-02	2.7282e+03
332	1.8840e-02	1.6076e-01	-1.1755e-01	4.0218e-02	2.4699e+03
333	1.8135e-02	3.3217e-02	-7.5881e-02	-5.8143e-02	3.7974e+03
334	6.4331e-02	5.5572e-02	-1.6741e-02	3.1715e-02	3.3341e+03
335	6.2294e-02	1.1638e-01	-9.5339e-02	-1.1474e-01	2.5558e+03
336	6.5824e-03	1.8352e-01	-5.5511e-02	1.0286e-01	2.1294e+03
337	5.8928e-02	1.4794e-01	5.3469e-02	-1.7472e-02	2.2786e+03
338	7.2747e-02	1.0288e-01	-8.0806e-03	-8.7207e-03	2.7868e+03
339	1.1627e-01	8.4074e-02	4.9516e-03	-8.1363e-02	2.8661e+03
340	5.5716e-02	2.1292e-01	4.7324e-02	-7.1490e-02	1.7387e+03
341	5.1683e-02	1.0900e-01	-5.9378e-02	-1.6561e-02	2.7598e+03
342	3.3387e-02	2.0442e-01	-2.3829e-03	1.1121e-01	1.7289e+03
343	2.1344e-02	3.4170e-01	7.2534e-02	-5.0577e-02	4.2781e+02
344	1.9741e-02	2.9555e-01	8.9846e-02	1.5130e-01	8.1994e+02
345	3.8748e-02	2.4382e-01	1.0113e-01	3.7464e-02	1.3572e+03
346	1.9184e-02	3.1764e-01	1.6668e-02	1.1650e-02	6.3840e+02
347	4.0721e-02	2.5218e-01	2.5776e-02	-3.8553e-02	1.2802e+03
348	6.7426e-02	1.4635e-01	-2.8134e-02	-6.6018e-03	2.3483e+03
349	7.5710e-02	1.8171e-01	-1.3715e-02	-6.5450e-02	1.9753e+03
350	8.7980e-02	1.4964e-01	-4.9424e-02	-7.4740e-02	2.1637e+03
351	8.7583e-02	1.6305e-01	-5.3938e-02	-1.3472e-01	2.0722e+03
352	4.0498e-02	2.2345e-01	-1.0156e-01	7.5414e-02	1.4914e+03
353	7.0403e-02	2.1792e-01	1.2500e-03	-8.6014e-02	1.6223e+03
354	5.5213e-02	2.3266e-01	-3.0974e-02	-8.3430e-02	1.4025e+03
355	6.8877e-02	2.0517e-01	3.3037e-02	-7.9467e-02	1.8127e+03
356	1.0456e-01	2.2291e-01	8.5879e-02	-1.7725e-01	1.5118e+03
357	1.1309e-01	1.8923e-01	1.5701e-02	-2.3283e-01	1.8974e+03
358	4.9597e-02	2.7132e-01	1.4973e-03	-1.1458e-02	1.0974e+03
359	1.0562e-01	2.5399e-01	1.6794e-01	-2.4291e-01	1.2495e+03
360	8.5707e-02	2.9235e-01	2.2571e-01	-9.7154e-02	8.7571e+02
361	4.4812e-02	3.4953e-01	2.3786e-01	-5.8003e-02	4.0715e+02
362	8.7951e-02	2.2409e-01	1.1710e-01	-9.7222e-02	1.4857e+03
363	8.8236e-02	3.0089e-01	2.1323e-01	-1.9340e-01	7.8369e+02
364	7.4223e-02	2.6621e-01	3.7220e-02	-1.9160e-01	1.1751e+03
365	6.6159e-02	2.8017e-01	5.8175e-02	-1.0868e-01	1.0963e+03
366	5.2061e-02	2.6091e-01	-1.3578e-01	-9.1498e-02	1.1175e+03
367	1.1048e-01	2.5127e-01	4.1585e-02	-1.8361e-01	1.2641e+03
368	1.3541e-01	2.4197e-01	1.4759e-01	-2.8416e-01	1.2885e+03
369	9.3401e-02	2.5866e-01	1.0596e-01	-2.5659e-01	1.1711e+03
370	9.8153e-02	3.1725e-01	1.0394e-01	-3.2041e-01	5.9734e+02
371	6.4412e-02	3.6358e-01	2.9352e-01	-3.4722e-01	-4.9862e+01
372	7.6372e-02	2.8284e-01	5.3294e-02	-9.2470e-02	9.9268e+02
373	1.2488e-01	3.4625e-01	3.1581e-01	-2.6243e-01	3.0824e+02
374	7.6559e-02	2.9836e-01	5.2732e-02	-2.9098e-01	6.7513e+02
375	1.5086e-01	3.5644e-01	3.6626e-01	-3.1372e-01	0.0000e+00
376	2.1494e-01	3.5935e-01	5.1448e-01	-2.3460e-01	2.3127e+02
377	1.3150e-01	3.0956e-01	1.5519e-01	-2.1428e-01	7.3859e+02
378	8.7770e-02	3.3223e-01	1.5294e-01	-2.0870e-01	5.5405e+02
379	9.4189e-02	3.3608e-01	2.0838e-01	-2.8588e-01	4.6854e+02
380	1.8451e-01	2.8067e-01	1.1841e-01	-3.1290e-01	8.5898e+02
381	1.5902e-01	2.8004e-01	7.4695e-02	-3.2756e-01	8.8553e+02
382	1.9860e-01	3.5586e-01	3.2411e-01	-3.3717e-01	5.9973e+01
383	2.2285e-01	3.2926e-01	2.7960e-01	-2.4981e-01	4.5272e+02
384	2.2936e-02	7.4974e-02	1.1044e-01	9.3636e-02	3.2811e+03
385	8.5334e-03	1.4176e-02	1.4832e-01	5.0644e-02	3.9422e+03
386	1.5108e-03	5.6359e-02	-8.6178e-02	1.1393e-01	3.2371e+03
387	4.6453e-02	5.7615e-02	-9.0244e-02	1.2331e-02	3.3776e+03
388	1.3357e-02	8.5786e-02	-9.7033e-03	1.0167e-01	3.1754e+03
389	5.8295e-02	7.7413e-02	6.5658e-02	1.3493e-01	3.0803e+03
390	6.0086e-02	4.9551e-02	-7.8866e-02	-2.9615e-02	3.3885e+03
391	3.6621e-02	1.8405e-01	-6.3350e-02	6.4119e-02	2.0161e+03
392	2.6692e-02	1.1659e-01	-1.0298e-02	6.7689e-03	2.7255e+03
393	6.1063e-02	6.3632e-02	-7.1103e-02	-2.2930e-03	3.2552e+03
394	5.1207e-02	4.8219e-02	-4.1942e-02	5.8057e-02	3.4337e+03
395	2.7954e-02	5.3395e-02	-1.5408e-01	1.2902e-01	3.5018e+03
396	8.2339e-02	7.6971e-02	-1.3242e-03	4.3815e-02	3.0124e+03
397	1.1169e-01	4.7698e-02	3.8289e-02	-1.6140e-01	3.3273e+03
398	4.5078e-02	1.2415e-01	4.5786e-02	9.9031e-02	2.6750e+03
399	1.1648e-01	7.1445e-02	-1.6134e-03	-3.3759e-02	3.0888e+03
400	9.8465e-02	7.2602e-02	3.2503e-03	-7.8117e-02	3.0459e+03
401	3.6502e-02	1.3029e-01	-2.9382e-02	1.5057e-01	2.5753e+03
402	7.6054e-02	5.6265e-02	-3.5094e-02	-3.4606e-02	3.3419e+03
403	9.0270e-02	9.5789e-02	-7.5302e-02	-1.4857e-01	2.8600e+03
404	1.5497e-02	2.2425e-01	2.7943e-02	1.3244e-01	1.5569e+03
405	7.7807e-02	1.2682e-01	1.0753e-02	-8.9184e-02	2.4350e+03
406	8.4501e-02	1.5195e-01	8.2294e-02	-9.5124e-02	2.2334e+03
407	6.9962e-02	1.5644e-01	1.0161e-01	-1.7319e-02	2.3510e+03
408	5.1369e-02	2.0888e-01	5.2270e-02	3.8940e-02	1.8206e+03
409	8.1208e-02	1.4004e-01	-1.1688e-02	-6.2901e-02	2.2768e+03
410	8.3919e-02	1.6711e-01	7.8519e-02	-5.7849e-02	2.0635e+03
411	3.1161e-02	2.4152e-01	-3.4577e-02	1.1906e-01	1.3659e+03
412	9.5529e-02	1.3223e-01	-3.5744e-02	-1.5026e-01	2.4163e+03
413	6.7400e-02	1.7395e-01	5.7056e-02	-1.0332e-01	2.0107e+03
414	1.0445e-01	1.3549e-01	-1.8531e-04	-1.3280e-01	2.3968e+03
415	5.2981e-02	2.5261e-01	1.1486e-01	-2.7942e-02	1.4282e+03
416	1.1432e-01	1.3669e-01	-2.5636e-03	-1.6132e-01	2.4091e+03
417	2.4302e-02	2.1532e-01	-7.5325e-02	6.8043e-02	1.7023e+03
418	1.0613e-01	1.6917e-01	8.2979e-02	-2.4694e-01	2.0211e+03
419	1.3284e-01	1.6217e-01	5.4478e-02	-2.2051e-01	2.1358e+03
420	3.6099e-02	2.1580e-01	-9.8446e-02	-7.3345e-03	1.5309e+03
421	1.0519e-01	2.0609e-01	8.0389e-02	-1.8260e-01	1.7031e+03
422	1.0724e-01	1.9527e-01	9.7548e-02	-2.1422e-01	1.8428e+03
423	7.5262e-02	2.3163e-01	9.8765e-02	-1.2785e-01	1.5878e+03
424	9.2054e-02	2.2222e-01	4.8856e-02	-1.9701e-01	1.5222e+03
425	1.4149e-01	2.1087e-01	1.7320e-01	-1.9052e-01	1.6114e+03
426	9.7883e-02	2.0970e-01	5.2106e-02	-1.8043e-01	1.7637e+03
427	1.1452e-01	2.4228e-01	1.1806e-01	-1.9856e-01	1.3659e+03
428	1.1604e-01	2.2573e-01	1.0709e-01	-2.0856e-01	1.5853e+03
429	9.3593e-02	2.4091e-01	8.0501e-03	-1.5265e-01	1.3983e+03
430	5.1881e-02	2.8172e-01	1.7395e-02	-8.1802e-02	9.9179e+02
431	1.0447e-01	2.3382e-01	1.3627e-01	-2.7424e-01	1.3345e+03
432	1.0738e-01	2.6804e-01	9.1276e-02	-1.7496e-01	1.0033e+03
433	6.8254e-02	3.1165e-01	7.3723e-02	-1.5758e-01	8.3048e+02
434	1.2369e-01	2.7135e-01	1.2633e-01	-3.0274e-01	1.0463e+03
435	3.2237e-02	3.4272e-01	1.2943e-01	5.3185e-02	4.5350e+02
436	5.0115e-02	3.3056e-01	1.8500e-01	-1.9016e-01	5.7390e+02
437	1.4999e-01	2.7578e-01	1.1781e-01	-2.3626e-01	9.6119e+02
438	1.2145e-01	3.2070e-01	2.3997e-01	-2.4565e-01	5.4665e+02
439	1.3853e-01	3.3255e-01	3.3184e-01	-2.6276e-01	4.0665e+02
440	8.4589e-02	3.0662e-01	1.2690e-01	-1.6609e-01	6.3464e+02
441	1.3792e-01	2.6793e-01	1.8784e-01	-2.7626e-01	9.8520e+02
442	1.1668e-01	2.7973e-01	1.1668e-01	-2.8622e-01	9.6711e+02
443	1.3001e-01	2.8362e-01	9.0731e-02	-2.7416e-01	8.5791e+02
444	1.5676e-01	3.0020e-01	2.4340e-01	-2.6790e-01	7.3215e+02
445	2.5050e-01	3.2274e-01	2.5159e-01	-3.0828e-01	4.4553e+02
446	2.4904e-01	3.1726e-01	2.8074e-01	-3.3743e-01	5.0681e+02
447	2.3895e-01	3.2848e-01	3.3629e-01	-3.2271e-01	5.0666e+02
448	3.8791e-02	-1.9882e-04	5.2959e-02	4.7441e-02	4.1066e+03
449	3.9670e-02	1.1708e-02	2.2062e-02	-2.9781e-02	3.8963e+03
450	2.0558e-02	9.0842e-02	-6.2014e-03	2.0529e-01	3.0892e+03
451	3.0329e-02	8.6569e-02	-1.0679e-01	-4.6128e-02	3.0401e+03
452	6.3020e-02	6.0714e-03	3.5997e-02	-5.5465e-02	3.7057e+03
453	3.7081e-02	5.4432e-02	-1.1094e-01	2.3013e-02	3.3981e+03
454	4.5564e-02	7.5569e-02	3.3059e-02	-1.4484e-02	3.2242e+03
455	3.4283e-02	2.9596e-02	-1.4141e-01	-2.4907e-02	3.7214e+03
456	5.9634e-03	8.0408e-02	8.9593e-02	1.1566e-01	3.1275e+03
457	9.7876e-02	1.4603e-02	-8.8390e-02	7.2470e-02	3.7875e+03
458	1.1892e-01	1.0440e-02	-4.0079e-02	-3.2407e-02	3.6759e+03
459	8.5180e-02	4.6303e-02	-1.9727e-02	-8.1668e-03	3.3720e+03
460	3.1962e-02	1.2826e-01	-3.5830e-02	1.2548e-01	2.5927e+03
461	7.7430e-02	6.4511e-02	-6.1689e-02	-1.2228e-02	3.1760e+03
462	8.6040e-02	5.3877e-02	-7.7147e-02	-4.2562e-02	3.3824e+03
463	4.6496e-02	9.9513e-02	-9.3401e-02	4.6002e-03	2.9243e+03
464	5.3546e-02	1.7868e-01	-2.9900e-02	-1.9596e-02	2.0583e+03
465	9.3826e-02	8.1646e-02	-2.2240e-02	-1.5679e-01	2.9366e+03
466	1.0590e-01	6.8496e-02	-6.1196e-03	-1.5428e-01	3.1642e+03
467	6.2168e-02	1.3692e-01	1.5378e-03	-1.4678e-01	2.5405e+03
468	1.1311e-01	8.4351e-02	-5.5180e-02	-1.2859e-01	2.8930e+03
469	8.6711e-02	1.0944e-01	9.9060e-03	-1.2529e-01	2.7020e+03
470	1.0078e-01	1.2085e-01	1.4964e-02	-1.2298e-01	2.4298e+03
471	4.7251e-02	1.9999e-01	5.4507e-03	9.6559e-02	1.8228e+03
472	1.0993e-01	1.1297e-01	-2.2992e-03	-1.7868e-01	2.5863e+03
473	1.1795e-01	1.4754e-01	3.9058e-02	-1.1792e-01	2.2083e+03
474	9.3187e-02	1.0618e-01	-2.6572e-02	-1.0171e-01	2.7188e+03
475	1.1407e-01	1.2431e-01	6.8367e-03	-9.5414e-02	2.5376e+03
476	1.3664e-02	1.6953e-01	-1.6112e-02	9.4949e-02	2.2802e+03
477	1.0064e-01	1.4763e-01	4.1554e-03	-1.5061e-01	2.2343e+03
478	9.3269e-02	1.7045e-01	2.7516e-02	-1.0162e-01	2.0653e+03
479	6.3876e-02	1.9844e-01	4.6536e-02	4.7118e-03	1.7876e+03
480	7.4383e-02	1.6851e-01	-3.4807e-03	1.5682e-03	2.0108e+03
481	8.0000e-02	2.1418e-01	2.1368e-02	-1.4642e-01	1.5208e+03
482	1.4834e-01	1.7505e-01	6.1997e-02	-2.0125e-01	1.9623e+03
483	1.2374e-01	1.5308e-01	3.3890e-03	-2.0481e-01	2.1748e+03
484	1.3491e-01	1.8052e-01	4.8123e-02	-2.0872e-01	1.9245e+03
485	1.2836e-01	1.8044e-01	1.0287e-01	-2.2731e-01	1.9043e+03
486	1.1785e-01	2.1143e-01	1.0524e-01	-1.7536e-01	1.6126e+03
487	1.3166e-01	2.0823e-01	1.2837e-01	-2.6860e-01	1.6169e+03
488	1.2879e-01	2.0142e-01	2.4893e-02	-2.4648e-01	1.7250e+03
489	1.4864e-01	1.9808e-01	1.1804e-01	-2.3391e-01	1.7287e+03
490	1.5209e-01	2.1568e-01	1.1333e-01	-2.4177e-01	1.5500e+03
491	1.0018e-01	2.3088e-01	-1.0729e-02	-1.8917e-01	1.3749e+03
492	7.0190e-02	2.2949e-01	-5.9141e-02	-1.0190e-01	1.5686e+03
493	8.4048e-02	2.3176e-01	-4.9689e-02	-7.4597e-02	1.5119e+03
494	1.1972e-01	2.3513e-01	3.0836e-02	-2.3192e-01	1.4533e+03
495	6.9108e-02	2.9697e-01	1.4728e-01	-2.5132e-01	8.3370e+02
496	1.2322e-01	2.5734e-01	1.4824e-01	-2.3783e-01	1.1350e+03
497	1.0104e-01	2.4467e-01	8.4413e-02	-2.8301e-01	1.3092e+03
498	1.0695e-01	2.8165e-01	4.3599e-02	-2.7514e-01	8.6071e+02
499	9.2345e-02	2.7159e-01	6.2339e-02	-1.9982e-01	1.1092e+03