variables="k","x","y","vx","vy","pressure"
zone i=8064 j=1
0	2.8649e-02	1.5681e-01	2.5214e-02	-3.4512e-03	6.6914e+02
1	6.1648e-04	1.7443e-01	2.2309e-02	-1.1838e-01	4.2693e+02
2	6.0421e-02	1.3174e-01	8.2374e-02	3.9504e-02	9.0968e+02
3	1.0918e-01	1.7501e-01	3.1262e-01	-9.7181e-02	5.1001e+02
4	7.4767e-02	9.8021e-02	-2.1506e-03	-4.3188e-02	1.1188e+03
5	8.9958e-02	1.6963e-01	2.1663e-01	-6.3442e-02	6.2817e+02
6	1.1991e-01	1.8352e-01	2.4552e-01	-1.3190e-01	3.6820e+02
7	1.2075e-01	2.1443e-01	3.8091e-01	-1.8487e-01	0.0000e+00
8	-4.9150e-04	2.0128e-01	3.3940e-02	-1.3260e-01	3.6295e+02
9	6.0536e-02	2.2275e-01	1.3421e-01	-2.3279e-01	0.0000e+00
10	1.3703e-01	1.3157e-01	1.4151e-01	-1.2545e-01	8.1477e+02
11	3.2398e-02	2.1244e-01	1.4333e-01	-2.2496e-02	1.3802e+02
12	9.4879e-02	2.1892e-01	3.1178e-01	-1.7888e-01	-1.1534e+01
13	2.8375e-01	2.1148e-01	3.5116e-01	-6.6952e-02	1.3253e+02
14	5.3196e-02	1.9621e-01	2.1534e-01	-1.7607e-01	3.4612e+02
15	1.0659e-01	2.0334e-01	2.6464e-01	-2.0820e-01	1.8680e+02
16	1.7209e-01	2.0196e-01	5.0398e-01	-1.9424e-01	1.1577e+02
17	2.4594e-01	2.0220e-01	4.9591e-01	-9.5394e-02	3.1724e+02
18	2.0614e-01	2.0413e-01	4.6286e-01	-1.5578e-01	1.2333e+02
19	1.8270e-02	2.1770e-01	6.1653e-03	-1.1887e-01	1.4042e+01
20	1.5309e-01	2.0569e-01	4.3468e-01	-2.4872e-01	1.1004e+02
21	1.6086e-02	2.1711e-01	-6.7856e-03	-1.0319e-01	2.4315e+01
22	1.0130e-01	1.3028e-01	9.8666e-02	-3.5099e-02	8.5564e+02
23	1.8456e-01	1.4711e-01	1.2619e-01	-1.2128e-01	6.1172e+02
24	2.5020e-01	2.0718e-01	4.0342e-01	-2.5355e-02	0.0000e+00
25	-7.6397e-05	2.1530e-01	9.4021e-02	-1.4182e-01	0.0000e+00
26	1.4348e-01	9.3574e-02	2.6726e-03	-8.8013e-02	1.1974e+03
27	1.8769e-01	2.0705e-01	4.7222e-01	-1.5016e-01	0.0000e+00
28	2.9622e-01	2.1928e-01	4.5704e-01	-2.0981e-01	-3.0640e+01
29	2.6761e-01	1.9246e-01	3.1965e-01	-5.3779e-02	2.3498e+02
30	-2.4559e-04	2.1731e-01	3.7161e-01	-4.7288e-02	0.0000e+00
31	1.8700e-01	1.2999e-01	1.2934e-01	-1.9529e-01	8.9465e+02
32	3.7685e-01	1.9090e-01	4.5768e-01	-1.2392e-01	4.0484e+02
33	3.4346e-01	2.1292e-01	4.1005e-01	-1.6259e-01	2.8788e+01
34	3.8192e-01	1.8429e-01	3.4658e-01	-1.5052e-01	3.4730e+02
35	3.4590e-01	1.9754e-01	3.7215e-01	-2.0938e-01	1.3183e+02
36	3.5887e-01	1.9037e-01	4.3140e-01	-2.1664e-01	2.2276e+02
37	2.7487e-01	1.8909e-01	4.3142e-01	-1.3215e-01	2.8555e+02
38	3.9830e-01	1.4197e-01	3.0246e-01	-1.5712e-01	7.5729e+02
39	4.6778e-01	2.1081e-01	4.5786e-01	-1.5043e-01	0.0000e+00
40	4.2756e-01	2.0818e-01	3.9858e-01	-1.0894e-01	1.7277e+02
41	2.8224e-01	1.7757e-01	1.9147e-01	-1.1202e-01	4.5172e+02
42	2.4127e-01	1.3314e-01	1.5085e-01	-1.2342e-01	7.9890e+02
43	3.1769e-01	2.0149e-01	3.7318e-01	-1.6047e-01	2.4196e+02
44	3.4276e-01	1.6092e-01	1.5389e-01	-8.5493e-02	4.5814e+02
45	3.9374e-01	1.7439e-01	2.8837e-01	-9.3994e-02	5.3593e+02
46	2.3423e-01	1.5433e-01	1.6295e-01	-1.2096e-01	6.4108e+02
47	3.8199e-01	2.1050e-01	4.4676e-01	-1.5351e-01	5.8062e+01
48	4.1307e-01	2.0362e-01	3.7637e-01	-1.1471e-01	2.7522e+02
49	5.4415e-01	2.0391e-01	4.6121e-01	-1.8068e-01	7.8576e+01
50	5.4688e-01	2.0415e-01	5.0998e-01	-1.6491e-01	1.1701e+02
51	3.6605e-01	1.6878e-01	3.9034e-01	-8.8167e-02	5.3839e+02
52	2.7371e-01	1.3940e-01	1.9977e-01	-9.3335e-02	7.7560e+02
53	5.7137e-01	2.0912e-01	4.1706e-01	-1.4392e-01	5.3135e+01
54	3.8910e-01	1.5766e-01	3.7071e-01	-1.6633e-01	7.0402e+02
55	3.9267e-01	1.8851e-01	4.8906e-01	-1.8686e-01	2.4524e+02
56	2.6185e-01	1.5100e-01	2.0539e-01	-1.3892e-01	6.6886e+02
57	4.8771e-01	1.8476e-01	3.5468e-01	-1.1570e-01	4.1540e+02
58	5.2608e-01	2.0636e-01	4.4775e-01	-1.3425e-01	5.7016e+01
59	2.4915e-01	1.6470e-01	2.2565e-01	-1.3866e-01	6.1440e+02
60	5.5183e-01	1.9787e-01	4.8210e-01	-1.4649e-01	2.3745e+02
61	3.2261e-01	1.5969e-01	2.4770e-01	-7.7218e-02	5.8309e+02
62	5.1048e-01	1.8896e-01	4.6807e-01	-1.3729e-01	3.1544e+02
63	5.6735e-01	1.8681e-01	4.6786e-01	-1.7589e-01	2.9074e+02
64	1.6514e-02	-1.2322e-03	7.3869e-02	1.0149e-02	2.0061e+03
65	-9.8786e-04	3.2374e-02	-1.1171e-01	-7.2819e-02	1.6126e+03
66	6.0082e-03	-5.7400e-04	-3.6741e-02	1.6572e-01	1.9368e+03
67	6.6135e-02	1.5390e-01	1.1582e-01	-5.1624e-02	6.6533e+02
68	1.8575e-02	1.5079e-01	1.4154e-01	-6.6496e-02	6.0440e+02
69	1.0317e-01	1.5757e-01	1.5760e-01	-1.3253e-01	6.5789e+02
70	6.5136e-02	1.9882e-01	2.0496e-01	-3.7120e-02	4.6287e+02
71	1.3876e-01	1.1937e-01	7.8527e-02	-1.4111e-01	9.3661e+02
72	8.0662e-02	2.1413e-01	3.0415e-01	-1.2128e-02	-1.7589e+02
73	1.6374e-02	2.0256e-01	-3.9968e-02	-3.0102e-02	3.6577e+02
74	9.1900e-02	1.9809e-01	2.5805e-01	-1.3674e-01	4.0411e+02
75	4.6050e-02	2.2631e-01	2.2252e-01	-1.1991e-01	0.0000e+00
76	8.3174e-02	1.5636e-01	9.4312e-02	-6.2335e-02	6.5838e+02
77	6.4072e-02	2.1038e-01	2.7304e-01	-1.5616e-01	3.3190e+02
78	1.4500e-01	2.0960e-01	3.6818e-01	-1.9606e-01	3.5776e+01
79	1.0200e-01	2.1566e-01	2.7018e-01	-2.1993e-01	1.9997e+01
80	2.0154e-02	2.0515e-01	1.2408e-02	-9.2098e-02	2.1656e+02
81	8.5255e-02	1.5492e-01	1.2098e-01	-4.0196e-03	5.7787e+02
82	1.0864e-01	2.2089e-01	3.2453e-01	-3.0778e-01	0.0000e+00
83	2.0590e-01	1.8947e-01	4.3315e-01	-1.1337e-01	3.5654e+02
84	1.5697e-01	1.9147e-01	3.7075e-01	-1.6709e-01	3.5437e+02
85	3.0271e-01	1.9150e-01	3.5044e-01	-2.0246e-01	3.1257e+02
86	3.4220e-01	2.1136e-01	5.2110e-01	-1.4955e-01	1.3241e+02
87	1.5181e-01	1.4410e-01	1.9526e-01	-8.4649e-02	7.6251e+02
88	2.2263e-01	1.8763e-01	4.8938e-01	-1.3976e-01	2.8067e+02
89	2.5043e-01	2.1091e-01	4.5993e-01	-7.6397e-02	0.0000e+00
90	3.3432e-01	2.1018e-01	5.0733e-01	-2.1914e-01	1.2384e+02
91	1.2960e-01	1.6216e-01	1.9113e-01	-1.8321e-01	5.0625e+02
92	2.1506e-01	2.0543e-01	4.5527e-01	-1.2934e-01	7.2690e+01
93	2.8696e-01	1.9510e-01	3.4284e-01	-1.4162e-01	2.9676e+02
94	2.0560e-01	1.7229e-01	2.9386e-01	-8.3681e-02	4.7368e+02
95	1.8122e-01	8.0437e-02	1.1348e-02	-1.5415e-01	1.3261e+03
96	3.5395e-01	2.1362e-01	4.0924e-01	-1.7875e-01	0.0000e+00
97	3.1104e-01	2.1150e-01	4.1438e-01	-5.3691e-03	9.9274e+01
98	2.5933e-01	1.8761e-01	3.7884e-01	-1.0262e-01	3.6523e+02
99	3.5476e-01	2.1350e-01	4.2069e-01	-1.7481e-01	0.0000e+00
100	3.1347e-01	2.1759e-01	4.0309e-01	-2.3683e-01	1.0916e+02
101	2.2728e-01	1.3577e-01	1.9996e-01	-1.7658e-01	8.0714e+02
102	3.9633e-01	1.8918e-01	3.0826e-01	-8.2294e-02	3.1611e+02
103	3.9978e-01	2.1042e-01	3.9456e-01	-8.1377e-02	0.0000e+00
104	3.2624e-01	2.1350e-01	4.5665e-01	-2.2545e-01	1.2846e+00
105	4.2025e-01	2.1162e-01	4.6465e-01	-1.2158e-01	0.0000e+00
106	3.7795e-01	1.5593e-01	2.9712e-01	-2.1681e-01	6.2455e+02
107	4.1553e-01	1.7213e-01	3.8971e-01	-1.2485e-01	5.5212e+02
108	4.1438e-01	1.9128e-01	3.5589e-01	-7.6973e-02	2.8299e+02
109	3.6295e-01	2.1031e-01	4.8450e-01	-1.6799e-01	1.6024e+02
110	3.5893e-01	1.9514e-01	4.0081e-01	-9.5325e-02	3.0382e+02
111	4.6190e-01	1.7332e-01	3.0236e-01	-1.6296e-01	4.8577e+02
112	4.4323e-01	1.8682e-01	3.7331e-01	-1.5438e-01	3.6761e+02
113	3.6403e-01	1.5711e-01	2.5570e-01	-1.7430e-01	6.6648e+02
114	4.5086e-01	2.0861e-01	4.4652e-01	-7.5767e-02	4.2493e+01
115	3.7586e-01	1.6665e-01	3.5059e-01	-2.5539e-01	4.6639e+02
116	4.1933e-01	1.8762e-01	3.1651e-01	-1.6336e-01	3.0712e+02
117	4.6279e-01	1.8427e-01	4.2244e-01	-1.0839e-01	4.3881e+02
118	5.2812e-01	2.0760e-01	4.7337e-01	-1.4809e-01	6.1720e+01
119	5.0632e-01	2.0937e-01	4.5735e-01	-1.2255e-01	3.7852e+01
120	4.7829e-01	1.9600e-01	4.4716e-01	-1.6033e-01	1.7955e+02
121	4.4868e-01	1.9008e-01	4.5013e-01	-4.0827e-02	2.7343e+02
122	4.9887e-01	2.0806e-01	4.3527e-01	-1.6836e-01	7.2816e+01
123	4.3533e-01	1.9402e-01	3.2698e-01	-8.9379e-02	2.1498e+02
124	2.9894e-01	1.3608e-01	2.3683e-01	-1.3281e-01	7.6192e+02
125	5.8299e-01	2.0643e-01	4.3144e-01	-1.5314e-01	5.8897e+01
126	4.4069e-01	1.4967e-01	2.7390e-01	-1.1208e-01	6.6952e+02
127	3.7820e-01	1.3005e-01	2.2835e-01	-1.8114e-01	8.7059e+02
128	4.1229e-02	1.1057e-01	-5.2342e-02	9.5843e-02	1.0657e+03
129	-2.6574e-04	1.8676e-01	1.0723e-01	-1.2083e-01	6.2942e+02
130	6.8021e-02	1.6554e-01	1.2532e-01	-2.3235e-02	5.5751e+02
131	7.9328e-03	9.5675e-02	4.6563e-03	9.8105e-02	1.2401e+03
132	3.8114e-03	8.5457e-02	-5.0436e-02	7.9073e-02	1.2077e+03
133	8.1828e-02	1.4915e-01	6.0962e-02	-2.5799e-02	7.1693e+02
134	7.8291e-02	1.9961e-01	2.5655e-01	-9.3309e-02	2.7401e+02
135	2.9522e-02	1.1841e-01	5.7044e-02	1.3052e-01	9.5743e+02
136	7.4367e-02	1.8944e-01	2.3031e-01	-1.8393e-01	2.6590e+02
137	7.4305e-02	2.0791e-01	2.1160e-01	-1.2671e-01	2.9411e+02
138	1.1477e-01	1.8560e-01	2.2485e-01	-1.4021e-01	4.0309e+02
139	1.2291e-02	1.6999e-01	2.3958e-01	1.0854e-02	6.1403e+02
140	5.5125e-02	1.7406e-01	1.2556e-01	-8.9812e-02	4.6957e+02
141	5.4396e-02	1.9373e-01	2.2050e-01	-7.1861e-02	3.0894e+02
142	6.6915e-02	2.2187e-01	1.9993e-01	-1.7792e-01	1.6965e+01
143	9.1350e-02	1.7838e-01	1.4763e-01	-1.3447e-01	4.5042e+02
144	4.4371e-02	2.0606e-01	1.3928e-01	-5.8070e-02	4.3080e+02
145	9.0408e-02	1.3014e-01	3.4309e-02	-1.2249e-01	8.6196e+02
146	2.2851e-01	2.0013e-01	5.4229e-01	-1.2381e-01	2.5028e+02
147	2.1740e-01	1.3761e-01	2.4345e-01	-2.3586e-01	7.6310e+02
148	3.7776e-01	2.0566e-01	4.1765e-01	-1.9327e-01	2.3354e+02
149	8.0859e-02	1.3729e-01	9.2605e-02	1.6890e-02	7.4735e+02
150	2.2009e-01	1.7010e-01	3.9643e-01	-1.5258e-01	5.5210e+02
151	1.6230e-01	1.6150e-01	2.2980e-01	-7.7049e-02	5.0445e+02
152	2.4044e-01	1.8980e-01	4.0708e-01	-1.3023e-01	3.2182e+02
153	1.3805e-01	2.1434e-01	4.1927e-01	-2.2671e-01	0.0000e+00
154	1.2384e-01	2.1272e-01	3.2750e-01	-2.7814e-01	2.0304e+02
155	2.2914e-01	2.0129e-01	4.3267e-01	-8.7299e-02	9.8834e+01
156	1.7219e-01	1.9261e-01	3.7550e-01	-1.5312e-01	3.0914e+02
157	2.9360e-01	1.8490e-01	3.3136e-01	-1.7132e-01	3.1342e+02
158	2.5903e-01	2.1007e-01	3.8971e-01	-3.8833e-02	9.7468e+01
159	1.0422e-01	1.0570e-01	5.7339e-02	7.6307e-03	1.0587e+03
160	1.9237e-01	1.7759e-01	3.7042e-01	-1.4029e-01	4.3865e+02
161	4.0142e-01	1.7390e-01	3.4736e-01	-1.5550e-01	4.7464e+02
162	3.1554e-01	2.1797e-01	3.9529e-01	-2.2256e-01	6.7554e+01
163	1.9541e-01	1.6143e-01	2.0102e-01	-1.0303e-01	5.6903e+02
164	9.8274e-02	2.1542e-01	1.9884e-01	-2.1535e-01	5.6235e+01
165	4.3126e-01	1.9184e-01	4.0493e-01	-1.7479e-01	2.2082e+02
166	4.3859e-01	2.0504e-01	4.8261e-01	-1.4208e-01	1.4066e+02
167	3.8684e-01	2.1104e-01	4.7272e-01	-1.3867e-01	0.0000e+00
168	3.4087e-01	1.8575e-01	4.1004e-01	-2.8018e-01	3.3071e+02
169	3.7987e-01	2.0579e-01	4.8973e-01	-1.7808e-01	2.6562e+02
170	3.9649e-01	2.0959e-01	5.6285e-01	-8.4466e-02	0.0000e+00
171	1.6418e-01	2.0106e-01	4.5562e-01	-2.2745e-01	1.5737e+02
172	3.2464e-01	2.1297e-01	4.3633e-01	-2.1329e-01	-1.7954e+01
173	2.3617e-01	1.4353e-01	1.4777e-01	-5.9669e-02	7.5442e+02
174	4.6197e-01	2.1090e-01	4.5410e-01	-1.4391e-01	0.0000e+00
175	4.6379e-01	1.9258e-01	3.7543e-01	-9.9417e-02	3.6333e+02
176	5.4637e-01	1.8206e-01	4.2110e-01	-1.9793e-01	3.5407e+02
177	3.7112e-01	1.8889e-01	4.1670e-01	-1.1889e-01	3.5774e+02
178	4.1992e-01	2.1170e-01	4.3341e-01	-1.3837e-01	0.0000e+00
179	3.8044e-01	1.7548e-01	3.5437e-01	-1.9963e-01	4.2352e+02
180	3.6052e-01	2.0412e-01	4.7831e-01	-1.3181e-01	2.6658e+02
181	2.9018e-01	1.6389e-01	2.3863e-01	-1.3752e-01	5.8088e+02
182	3.5081e-01	1.7727e-01	4.5310e-01	-1.9769e-01	4.8991e+02
183	4.8785e-01	2.0732e-01	4.0005e-01	-1.5745e-01	1.0868e+02
184	4.2663e-01	1.8002e-01	4.1560e-01	-7.8216e-02	4.0639e+02
185	5.0659e-01	2.0818e-01	5.3687e-01	-1.3027e-01	1.0139e+02
186	4.7952e-01	2.0781e-01	4.5717e-01	-1.6626e-01	9.7232e+01
187	4.4299e-01	1.7090e-01	3.2807e-01	-1.1976e-01	5.1348e+02
188	4.6679e-01	1.9068e-01	3.5849e-01	-1.4857e-01	3.0698e+02
189	4.3774e-01	1.6674e-01	3.6715e-01	-1.0860e-01	5.3491e+02
190	2.8323e-01	1.3043e-01	1.8576e-01	-1.0896e-01	8.1325e+02
191	3.6348e-01	1.3162e-01	1.6575e-01	-1.4490e-01	7.6242e+02
192	2.2691e-02	1.3212e-01	1.9536e-02	1.0148e-01	9.2513e+02
193	2.0595e-02	9.9846e-02	5.0967e-02	7.3784e-02	1.2079e+03
194	4.6182e-03	1.4850e-01	-7.0032e-02	9.1346e-02	7.8225e+02
195	9.8178e-02	1.8455e-01	2.9978e-01	-1.0993e-01	2.7359e+02
196	-3.9379e-04	1.5952e-01	2.1397e-01	2.7980e-02	6.9330e+02
197	1.9776e-02	1.7675e-01	9.7649e-03	-2.3187e-02	3.9774e+02
198	3.2118e-02	1.3724e-01	9.4107e-02	4.4251e-02	7.4860e+02
199	1.3954e-01	1.8291e-01	2.8408e-01	-1.0474e-01	4.1651e+02
200	2.3716e-02	1.9649e-01	1.4245e-01	-8.6757e-03	2.8535e+02
201	6.7274e-02	1.0686e-01	8.6997e-02	-2.2238e-02	1.0248e+03
202	1.0175e-01	1.6485e-01	2.2975e-01	7.2616e-03	5.0174e+02
203	8.3360e-02	4.1930e-02	-9.9241e-02	-4.8232e-03	1.6556e+03
204	4.8347e-02	1.9035e-01	9.4157e-02	1.0801e-01	1.3381e+02
205	2.8302e-02	1.8651e-01	1.5729e-01	6.0285e-03	3.6168e+02
206	6.2117e-02	1.4793e-01	8.2824e-02	8.1404e-02	6.4719e+02
207	1.1675e-01	1.6894e-01	2.2321e-01	-2.0190e-01	5.3637e+02
208	1.0973e-01	2.0168e-01	3.4311e-01	-4.2262e-02	3.1712e+02
209	3.2911e-02	1.8064e-01	2.0543e-02	1.0377e-01	5.0007e+02
210	1.8965e-01	2.0351e-01	4.7007e-01	-1.1158e-01	2.1340e+02
211	4.8722e-02	2.2022e-01	1.2216e-01	-2.6906e-01	9.4227e+01
212	9.1012e-02	2.0205e-01	1.3679e-01	-2.1829e-01	2.5687e+02
213	3.6751e-02	2.2111e-01	-1.8357e-04	-2.3268e-01	2.5739e+01
214	1.7151e-01	2.0323e-01	4.0196e-01	-1.8765e-01	3.1604e+01
215	1.8858e-01	1.9122e-01	3.8510e-01	-1.3354e-01	2.4762e+02
216	1.0013e-01	2.1440e-01	2.0724e-01	-2.3206e-01	1.1459e+02
217	1.7466e-01	1.4520e-01	2.4913e-01	-1.5727e-01	7.9953e+02
218	2.8186e-01	2.1092e-01	3.3118e-01	-8.3396e-02	1.1702e+02
219	8.0040e-02	2.1852e-01	2.3508e-01	-1.4490e-01	2.4469e+01
220	6.2131e-02	2.1797e-01	2.4293e-01	-1.8124e-01	-2.8159e+01
221	2.1851e-01	2.0466e-01	4.2078e-01	-1.1051e-01	9.2684e+01
222	1.6610e-01	1.2329e-01	6.8283e-02	-1.3385e-01	8.4995e+02
223	3.7157e-02	2.1871e-01	5.2205e-02	-1.5726e-01	-1.1385e+02
224	1.9322e-01	2.0582e-01	4.3300e-01	-1.9284e-01	0.0000e+00
225	2.9575e-01	1.9978e-01	3.5193e-01	-9.8484e-02	1.9207e+02
226	1.7074e-01	1.2563e-01	1.9457e-01	-1.4630e-01	8.3523e+02
227	2.9657e-01	2.1698e-01	4.3337e-01	-2.4324e-01	2.1509e+01
228	3.4833e-01	1.5855e-01	3.4682e-01	-1.9797e-01	6.1910e+02
229	4.0986e-01	2.1186e-01	4.6976e-01	-5.5478e-02	0.0000e+00
230	1.6544e-01	1.5951e-01	2.8501e-01	-1.3562e-01	5.5290e+02
231	1.8873e-01	1.5959e-01	3.2203e-01	-1.5581e-01	5.5459e+02
232	3.5945e-01	2.1415e-01	5.1530e-01	-2.1938e-01	0.0000e+00
233	2.6786e-01	1.7489e-01	2.2712e-01	-1.6660e-01	3.7684e+02
234	2.8293e-01	1.8213e-01	3.0759e-01	-7.2511e-02	4.2387e+02
235	3.6851e-01	1.4526e-01	2.8059e-01	-9.2908e-02	7.5987e+02
236	3.6812e-01	1.7580e-01	4.7237e-01	-1.4595e-01	5.0854e+02
237	2.1904e-01	1.6649e-01	2.5468e-01	-1.5271e-01	5.4551e+02
238	2.2605e-01	9.6107e-02	9.9591e-02	-1.2980e-01	1.1620e+03
239	3.7486e-01	1.4194e-01	2.5129e-01	-1.4630e-01	8.4016e+02
240	4.5467e-01	2.0391e-01	3.7470e-01	-1.0476e-01	2.8148e+02
241	4.6547e-01	2.0848e-01	3.7080e-01	-1.3199e-01	1.2669e+02
242	3.9708e-01	1.5928e-01	2.6215e-01	-1.4558e-01	6.3273e+02
243	3.6320e-01	1.4542e-01	1.7447e-01	-1.4975e-01	7.6282e+02
244	1.2344e-01	1.9364e-01	3.0612e-01	-1.8939e-01	3.1367e+02
245	2.4610e-01	1.7523e-01	2.7179e-01	-1.1811e-01	3.9513e+02
246	2.3506e-01	1.4909e-01	1.6834e-01	-1.4887e-01	7.0950e+02
247	3.1345e-01	1.5924e-01	3.0820e-01	-1.2476e-01	5.5709e+02
248	3.8822e-01	1.6968e-01	4.1994e-01	-1.7416e-01	5.8030e+02
249	2.4762e-01	1.5000e-01	1.9663e-01	-2.1173e-01	5.9009e+02
250	1.8568e-01	1.4160e-01	1.3773e-01	-1.2230e-01	6.9176e+02
251	3.0467e-01	1.7525e-01	3.5117e-01	-1.4162e-01	4.2242e+02
252	3.8404e-01	1.4489e-01	2.0510e-01	-1.9783e-01	7.7444e+02
253	1.8424e-01	1.2452e-01	9.2664e-02	-8.0269e-02	9.3704e+02
254	3.6603e-01	1.6038e-01	3.0413e-01	-6.6896e-02	5.7789e+02
255	5.8053e-01	2.0723e-01	4.4768e-01	-1.7707e-01	9.6698e+01
256	4.3617e-02	1.7147e-01	3.8214e-02	7.1409e-02	5.0494e+02
257	3.1140e-02	5.8126e-02	2.4416e-03	7.8239e-02	1.6461e+03
258	8.4501e-04	1.6999e-02	3.6364e-02	-9.1763e-03	1.9280e+03
259	9.6216e-02	1.6335e-01	2.1620e-01	-1.3467e-01	5.1004e+02
260	3.1637e-02	1.6477e-01	9.6946e-02	-1.9821e-02	5.0829e+02
261	7.5583e-03	1.2556e-01	6.8363e-02	9.7016e-02	8.9620e+02
262	1.5457e-02	4.4237e-02	-7.1591e-02	5.2803e-02	1.8076e+03
263	1.1924e-01	1.3686e-01	1.6114e-01	-1.2903e-01	7.6394e+02
264	3.1951e-02	1.2192e-01	-2.6163e-02	3.4010e-02	9.3704e+02
265	3.2589e-02	9.7321e-02	4.6847e-02	7.2507e-02	1.0743e+03
266	1.1845e-01	1.4766e-01	2.0452e-01	-7.3763e-02	6.9385e+02
267	1.0163e-01	6.5777e-03	-3.8967e-02	6.4025e-03	1.8760e+03
268	5.2268e-02	1.7717e-01	1.2524e-01	1.5633e-01	4.1226e+02
269	5.6021e-02	1.6173e-01	1.1069e-01	1.1422e-01	5.9066e+02
270	1.1990e-01	7.0968e-02	-7.6452e-02	4.9207e-02	1.3387e+03
271	1.0780e-01	1.1837e-01	4.6615e-02	-2.8762e-02	9.4435e+02
272	4.0387e-02	1.2727e-01	3.9073e-02	7.6486e-02	8.7266e+02
273	8.1218e-02	5.0098e-02	-9.0227e-02	-1.3119e-02	1.6123e+03
274	1.3930e-01	1.6807e-01	2.7105e-01	-1.0605e-01	5.7840e+02
275	1.3134e-01	1.8303e-01	3.1465e-01	-1.8934e-01	3.7397e+02
276	1.4380e-01	1.5429e-01	2.6162e-01	-1.3308e-01	6.7024e+02
277	2.1804e-01	1.8599e-01	4.1553e-01	-1.1987e-01	3.0313e+02
278	2.3590e-01	1.7670e-01	3.9164e-01	-1.9578e-01	3.8813e+02
279	1.4931e-01	2.0689e-01	3.9149e-01	-2.1907e-01	1.0935e+02
280	2.4811e-01	1.8161e-01	3.8523e-01	-8.6815e-02	2.9661e+02
281	1.8139e-02	2.1684e-01	-4.4514e-02	-1.0679e-01	3.5387e+01
282	2.4108e-01	2.1037e-01	4.7765e-01	-5.1075e-02	0.0000e+00
283	1.9142e-01	1.7790e-01	4.0399e-01	-1.3814e-01	4.1170e+02
284	1.6539e-01	1.4519e-01	2.1386e-01	-1.4737e-01	7.0373e+02
285	1.4262e-01	1.8596e-01	3.1326e-01	-1.3492e-01	3.4961e+02
286	1.3949e-01	1.0876e-01	2.4730e-03	-1.3614e-01	1.1037e+03
287	1.1102e-01	1.3506e-01	1.0651e-01	-2.4655e-02	8.1441e+02
288	1.6420e-01	1.8161e-01	3.6951e-01	-1.6495e-01	4.3371e+02
289	1.0782e-01	9.9542e-02	-5.8275e-02	-1.8138e-02	1.1251e+03
290	2.0045e-01	2.0704e-01	3.4492e-01	-1.8606e-01	0.0000e+00
291	6.8122e-02	1.2653e-01	-5.1380e-02	4.1205e-02	9.0325e+02
292	2.9936e-01	1.9879e-01	5.0318e-01	-1.8286e-01	1.7829e+02
293	2.0227e-01	1.8925e-01	4.3647e-01	-1.3108e-01	3.4179e+02
294	1.5760e-01	1.5170e-01	2.2056e-01	-1.9724e-01	6.0847e+02
295	1.5578e-01	1.3714e-01	1.1878e-01	-9.4698e-02	7.8907e+02
296	1.7686e-01	1.6819e-01	3.0647e-01	-1.5893e-01	4.8823e+02
297	1.2651e-01	2.1429e-01	3.4963e-01	-2.2889e-01	6.0863e+01
298	2.9356e-01	2.2014e-01	2.9018e-01	-2.1033e-01	0.0000e+00
299	1.2389e-01	1.0481e-01	-5.0089e-02	-6.5089e-02	9.9549e+02
300	1.8873e-01	1.0997e-01	9.1028e-02	-1.6428e-01	1.0051e+03
301	2.6461e-01	2.0498e-01	4.6007e-01	-6.7941e-02	7.8368e+01
302	3.8894e-01	1.9431e-01	4.5242e-01	-1.7361e-01	1.6889e+02
303	1.8103e-01	1.6299e-01	2.2723e-01	-1.2745e-01	5.3080e+02
304	3.2606e-01	1.7139e-01	3.4686e-01	-8.4729e-02	5.2348e+02
305	4.3341e-01	1.8018e-01	3.9648e-01	-1.0370e-01	4.9399e+02
306	3.0420e-01	2.2594e-01	3.5056e-01	-4.3251e-02	0.0000e+00
307	4.2797e-01	2.0568e-01	4.2207e-01	-1.4731e-01	2.1019e+02
308	3.1689e-01	1.8703e-01	3.2524e-01	-1.0247e-01	4.0108e+02
309	4.0941e-01	1.6961e-01	3.4631e-01	-8.7687e-02	5.2362e+02
310	3.6156e-01	1.8297e-01	3.5781e-01	-1.1224e-01	3.6770e+02
311	3.4783e-01	1.7153e-01	3.1809e-01	-1.3515e-01	5.5179e+02
312	1.7920e-01	1.7685e-01	3.6745e-01	-1.2192e-01	4.1112e+02
313	2.4756e-01	1.6290e-01	2.6207e-01	-9.3190e-02	5.8894e+02
314	5.0954e-01	1.9669e-01	4.1975e-01	-1.0990e-01	3.0415e+02
315	4.8152e-01	2.0747e-01	4.7120e-01	-1.6193e-01	1.0481e+02
316	2.9005e-01	2.1910e-01	3.8157e-01	-1.8845e-01	0.0000e+00
317	4.1055e-01	1.9231e-01	3.5674e-01	-1.2535e-01	2.9390e+02
318	5.2749e-01	2.0253e-01	4.3110e-01	-1.7256e-01	1.6685e+02
319	5.1711e-01	2.0789e-01	4.3150e-01	-8.3681e-02	-4.1414e+01
320	3.3929e-02	2.2872e-02	2.6979e-02	6.7651e-02	1.8744e+03
321	1.8520e-02	1.1927e-01	-6.1587e-03	1.6037e-01	9.1996e+02
322	4.7396e-02	2.0228e-02	2.1723e-02	-9.0132e-02	1.9302e+03
323	3.6588e-02	1.0550e-01	6.0702e-02	4.9951e-02	1.1055e+03
324	1.2595e-01	1.3621e-03	-3.9472e-02	-2.1650e-02	1.9534e+03
325	5.5671e-03	1.3963e-01	2.5366e-03	5.9793e-02	8.2596e+02
326	4.0588e-02	1.8456e-01	2.8788e-02	-1.9241e-01	4.2482e+02
327	1.1490e-01	1.5598e-01	1.4813e-01	-7.8838e-02	6.5564e+02
328	3.9721e-02	2.0653e-01	8.9945e-02	-8.9149e-02	4.3805e+02
329	4.0205e-02	6.5549e-02	-7.1694e-02	3.1703e-02	1.5779e+03
330	1.4445e-02	1.9081e-01	4.1283e-02	-8.4185e-02	3.3043e+02
331	8.3296e-02	1.0063e-01	2.4166e-02	-1.7019e-02	1.0894e+03
332	8.8604e-02	1.7928e-01	2.0944e-01	-1.7174e-01	5.0326e+02
333	1.7191e-02	8.9262e-02	1.5325e-03	1.6434e-01	1.3545e+03
334	3.0710e-02	7.7871e-02	-5.1391e-02	7.0984e-02	1.3357e+03
335	4.4384e-02	1.4685e-01	8.2645e-02	1.3327e-02	6.7336e+02
336	5.1165e-02	2.1429e-01	1.3525e-01	-6.5875e-02	-2.0252e+01
337	9.6137e-02	1.4005e-01	1.6257e-01	-4.0134e-02	7.1895e+02
338	5.6029e-02	1.0018e-01	1.8131e-02	8.0404e-02	1.1154e+03
339	9.7863e-02	5.3112e-02	-9.7645e-02	-3.7680e-02	1.5504e+03
340	1.2853e-01	1.5666e-01	2.8889e-01	-6.4464e-02	5.9418e+02
341	6.3579e-02	1.8543e-01	1.0708e-01	-2.2009e-02	4.4524e+02
342	1.1016e-01	1.9557e-01	3.2873e-01	-1.5817e-01	3.0448e+02
343	2.0803e-01	2.0442e-01	5.4497e-01	-1.7486e-01	1.0815e+02
344	1.8247e-01	1.8410e-01	2.8297e-01	-2.3233e-01	2.8646e+02
345	2.0328e-01	1.7116e-01	3.4247e-01	-1.2815e-01	4.9833e+02
346	2.6825e-01	2.0672e-01	4.5788e-01	-7.9399e-02	8.9614e+01
347	1.6727e-01	1.7706e-01	3.3738e-01	-1.2575e-01	4.2473e+02
348	5.6101e-02	1.3243e-01	-3.2861e-03	2.4710e-02	9.2282e+02
349	1.1197e-01	1.2969e-01	5.6438e-02	-2.4504e-02	8.7614e+02
350	9.0043e-02	9.5115e-02	-9.5249e-05	-6.6224e-02	1.1453e+03
351	1.2979e-01	1.3958e-01	1.2437e-01	-2.0124e-02	7.9112e+02
352	1.3213e-01	1.9661e-01	3.1967e-01	-1.4743e-01	3.3317e+02
353	1.6273e-01	1.7262e-01	2.4556e-01	-1.6850e-01	4.1084e+02
354	1.5336e-01	1.8490e-01	3.3617e-01	-1.5524e-01	3.1511e+02
355	9.9215e-02	1.4679e-01	1.1593e-01	-9.6787e-02	7.2069e+02
356	1.2559e-01	1.1485e-01	5.5727e-02	-4.5716e-02	9.5962e+02
357	6.7440e-02	8.1272e-02	-1.1639e-01	-4.0689e-03	1.4193e+03
358	1.4943e-01	1.6824e-01	2.5793e-01	-1.9196e-01	5.5702e+02
359	1.9150e-01	1.2072e-01	1.5027e-01	-6.5953e-02	9.1518e+02
360	2.1474e-01	1.4078e-01	9.7547e-02	-1.2010e-01	7.4157e+02
361	3.4065e-01	2.0125e-01	5.0654e-01	-2.1528e-01	2.0186e+02
362	1.4357e-01	1.4507e-01	1.8012e-01	-1.6742e-01	6.9603e+02
363	2.5128e-01	1.4265e-01	1.9040e-01	-1.6480e-01	7.4605e+02
364	1.7704e-01	1.3509e-01	1.2439e-01	-1.7022e-01	9.0433e+02
365	2.1243e-01	1.8301e-01	3.8534e-01	-1.4349e-01	3.4301e+02
366	1.5232e-01	1.9886e-01	4.0916e-01	-1.9633e-01	1.5918e+02
367	1.7615e-01	1.1662e-01	8.0922e-02	-2.0886e-01	9.5504e+02
368	2.3560e-01	1.1474e-01	1.5222e-01	-6.5697e-02	9.6602e+02
369	2.0338e-01	1.2956e-01	1.6196e-01	-1.0472e-01	7.8398e+02
370	2.8074e-01	1.5779e-01	2.5363e-01	-1.4893e-01	5.9231e+02
371	3.4432e-01	1.8535e-01	3.9176e-01	-1.9766e-01	4.0939e+02
372	2.2698e-01	1.7195e-01	2.1137e-01	-8.9329e-02	4.7630e+02
373	4.0653e-01	1.8358e-01	4.5659e-01	-1.6942e-01	4.3556e+02
374	2.0198e-01	1.5879e-01	2.6162e-01	-1.5977e-01	5.9101e+02
375	4.5130e-01	2.0944e-01	4.6899e-01	-8.4918e-02	7.6356e+01
376	5.6752e-01	2.0878e-01	4.7935e-01	-1.5003e-01	0.0000e+00
377	3.2468e-01	2.0227e-01	4.7251e-01	-1.5684e-01	2.3777e+02
378	3.0834e-01	1.9601e-01	3.3388e-01	-1.3407e-01	2.8283e+02
379	3.3722e-01	1.9164e-01	4.2668e-01	-1.9864e-01	2.4675e+02
380	3.2315e-01	1.7846e-01	2.8509e-01	-9.4261e-02	4.3979e+02
381	2.7629e-01	1.7107e-01	2.5104e-01	-1.9559e-01	4.5593e+02
382	4.8976e-01	2.0500e-01	4.5736e-01	-1.5795e-01	7.8996e+01
383	4.9087e-01	1.8847e-01	4.3362e-01	-1.6881e-01	3.5214e+02
384	6.1439e-02	1.5013e-01	6.5184e-02	-4.8270e-02	6.2944e+02
385	1.0384e-02	1.5014e-02	6.6485e-02	-8.9601e-02	1.9938e+03
386	1.6137e-04	1.1317e-01	-4.3152e-02	1.0656e-01	1.0117e+03
387	4.2810e-02	1.2717e-01	6.8292e-02	9.9895e-02	8.7092e+02
388	1.5217e-02	1.4309e-01	7.2663e-03	7.2903e-02	6.7010e+02
389	7.0264e-02	1.3594e-01	1.1838e-01	-3.0275e-02	7.3026e+02
390	2.1248e-02	6.5483e-02	4.3557e-02	3.9501e-02	1.5165e+03
391	1.2650e-01	2.0951e-01	3.9072e-01	-8.2456e-02	6.9961e+01
392	2.8879e-02	1.7050e-01	6.1286e-02	-3.5335e-03	4.6760e+02
393	4.6498e-02	1.0043e-01	6.4669e-02	1.0447e-01	1.2771e+03
394	2.1137e-02	7.4416e-02	-2.3688e-02	8.0086e-03	1.3340e+03
395	4.5793e-02	1.6627e-01	8.9065e-02	2.1508e-02	5.6217e+02
396	8.0048e-02	7.2375e-02	-3.8078e-02	5.2659e-02	1.3579e+03
397	8.3919e-02	3.1670e-02	-6.3413e-02	-4.8737e-02	1.8001e+03
398	3.6078e-02	1.9342e-01	2.3577e-02	-7.5561e-03	3.3054e+02
399	1.1025e-01	4.9165e-02	2.8066e-02	3.1822e-02	1.6035e+03
400	6.1076e-02	7.6816e-02	-9.8156e-02	7.7277e-03	1.4135e+03
401	1.4391e-01	1.5876e-01	1.9869e-01	-8.2690e-02	6.6161e+02
402	2.5883e-02	1.0536e-01	-2.1913e-02	1.3168e-01	1.0286e+03
403	4.2116e-02	8.4712e-02	-5.3108e-02	-1.8696e-02	1.2812e+03
404	1.3810e-01	1.9819e-01	2.8980e-01	-1.6316e-01	2.1742e+02
405	7.2536e-02	1.1478e-01	-7.1671e-02	6.5718e-02	9.8828e+02
406	9.1068e-02	8.6615e-02	1.4125e-02	-2.7242e-02	1.1955e+03
407	1.2068e-01	1.2084e-01	7.5704e-02	-6.3163e-02	9.5569e+02
408	1.4962e-01	1.7213e-01	2.5607e-01	-1.2656e-01	4.7431e+02
409	5.4974e-02	1.1409e-01	8.6702e-03	2.2281e-02	8.8377e+02
410	1.0121e-01	1.4611e-01	1.3167e-01	-8.3604e-03	7.5874e+02
411	1.8246e-01	1.9559e-01	5.0369e-01	-1.8548e-01	2.2487e+02
412	4.7083e-02	6.7036e-02	-7.6099e-02	2.9403e-02	1.5015e+03
413	8.0460e-02	1.2392e-01	1.2010e-01	-1.8773e-02	8.4651e+02
414	9.4563e-02	7.4855e-02	-1.6418e-02	-3.0141e-02	1.3131e+03
415	2.3252e-01	1.8566e-01	3.7199e-01	-8.1208e-02	3.6910e+02
416	1.0180e-01	9.1824e-02	-5.6696e-02	1.5756e-02	1.2069e+03
417	1.4096e-01	2.1415e-01	4.8517e-01	-2.3184e-01	0.0000e+00
418	1.2882e-01	9.3771e-02	6.4284e-02	-7.0504e-02	1.1198e+03
419	1.0398e-01	8.2378e-02	-7.3108e-02	-2.5640e-02	1.3044e+03
420	8.6829e-02	1.9145e-01	2.1799e-01	-1.1552e-01	3.7559e+02
421	1.4990e-01	1.0376e-01	1.3576e-02	-3.2724e-02	1.0039e+03
422	1.3647e-01	1.0791e-01	1.4099e-03	-6.8077e-02	1.1058e+03
423	1.5286e-01	1.2894e-01	1.4865e-01	-1.5075e-01	8.7815e+02
424	1.6411e-01	1.3474e-01	1.3023e-01	-1.2535e-01	7.4475e+02
425	2.2029e-01	8.2855e-02	4.9743e-02	-9.6043e-02	1.3073e+03
426	1.6020e-01	1.0263e-01	1.1376e-02	-1.5442e-01	1.0830e+03
427	1.6757e-01	1.0570e-01	4.5186e-02	-1.3165e-01	1.1219e+03
428	1.7854e-01	1.0122e-01	7.0885e-02	-8.8545e-02	1.1422e+03
429	1.7423e-01	1.5542e-01	1.6899e-01	-1.0146e-01	6.5367e+02
430	2.3721e-01	2.0035e-01	4.0668e-01	-9.4198e-02	1.4884e+02
431	1.7680e-01	1.0900e-01	9.8214e-02	-1.2368e-01	1.0805e+03
432	2.1159e-01	1.1043e-01	1.0164e-01	-1.2128e-01	1.0607e+03
433	2.1294e-01	1.4857e-01	2.4534e-01	-2.4868e-01	6.5390e+02
434	2.3977e-01	1.3018e-01	2.1934e-01	-1.0989e-01	8.0746e+02
435	2.8243e-01	2.0110e-01	4.7870e-01	-2.0058e-01	2.7611e+02
436	2.6268e-01	1.7818e-01	2.9960e-01	-9.6420e-02	3.6963e+02
437	2.6337e-01	1.6183e-01	2.1643e-01	-1.7426e-01	6.2946e+02
438	2.8906e-01	1.7159e-01	1.6413e-01	-9.7185e-02	4.3055e+02
439	3.9868e-01	2.0391e-01	4.6383e-01	-1.0865e-02	2.5509e+02
440	2.5321e-01	1.8854e-01	3.7239e-01	-1.9400e-02	4.1595e+02
441	2.5780e-01	1.3879e-01	1.8704e-01	-1.1675e-01	7.5450e+02
442	2.1071e-01	1.2451e-01	8.5142e-02	-1.5660e-01	8.4567e+02
443	2.7763e-01	1.5603e-01	2.1441e-01	-9.2063e-02	5.6587e+02
444	3.0950e-01	1.7046e-01	3.4773e-01	-1.5364e-01	4.5554e+02
445	4.5072e-01	1.7105e-01	3.1687e-01	-6.7179e-02	4.7084e+02
446	4.4716e-01	1.5901e-01	3.0553e-01	-1.8085e-01	5.8943e+02
447	4.7115e-01	1.7620e-01	3.2795e-01	-1.4294e-01	4.3115e+02
448	3.0436e-02	-6.5470e-04	4.0840e-02	4.9088e-02	2.1907e+03
449	2.1185e-02	3.0296e-02	-6.7731e-02	-5.3500e-02	1.7626e+03
450	4.5589e-02	1.5814e-01	1.8560e-01	1.1620e-01	6.0126e+02
451	3.5815e-02	1.5170e-01	6.8130e-02	8.3527e-02	6.8625e+02
452	6.5887e-02	2.7672e-04	1.0150e-02	3.8012e-03	1.9428e+03
453	2.0951e-02	1.3642e-01	1.1860e-03	8.1746e-03	8.4064e+02
454	3.2013e-02	8.1169e-02	-2.9991e-02	1.1590e-01	1.3022e+03
455	2.0504e-02	1.2661e-02	6.3060e-03	2.3296e-02	2.0932e+03
456	3.0707e-02	1.4392e-01	7.2799e-02	8.7704e-02	7.3790e+02
457	5.4628e-02	4.9412e-02	-6.4405e-02	5.5230e-02	1.6485e+03
458	8.2485e-02	3.3588e-02	1.8606e-02	1.0381e-01	1.7467e+03
459	3.0317e-02	4.0325e-02	-1.1888e-01	2.8242e-02	1.8152e+03
460	7.5236e-02	1.7384e-01	2.2181e-01	-1.3257e-02	5.4396e+02
461	4.0263e-02	8.9036e-02	-1.9931e-02	1.2043e-01	1.2070e+03
462	6.1581e-03	5.4556e-02	-1.0742e-01	8.5169e-02	1.4698e+03
463	1.5413e-02	1.5905e-01	1.2224e-02	3.7121e-02	5.1969e+02
464	1.1902e-01	1.7036e-01	1.9177e-01	-3.6309e-02	4.9160e+02
465	6.7284e-02	6.7989e-02	-8.3815e-02	8.6096e-02	1.3963e+03
466	6.9676e-02	4.6137e-02	-5.5291e-02	3.7385e-02	1.6371e+03
467	7.6898e-02	1.4183e-01	1.1691e-01	-1.8654e-02	7.7117e+02
468	5.3249e-02	3.7233e-02	-4.1738e-02	2.2567e-02	1.7259e+03
469	5.1517e-02	7.4793e-02	-9.2641e-03	-9.5882e-04	1.3935e+03
470	5.4568e-02	9.4976e-02	-9.4109e-02	2.6426e-02	1.1654e+03
471	1.0355e-01	1.8447e-01	1.6380e-01	-4.2445e-02	2.7625e+02
472	1.1193e-01	5.8606e-02	3.5240e-04	2.1090e-02	1.5543e+03
473	9.7396e-02	1.0621e-01	-5.8716e-02	-2.8717e-02	1.0307e+03
474	5.3833e-02	5.8893e-02	-7.6287e-02	-1.9492e-02	1.5518e+03
475	6.1945e-02	9.4308e-02	-7.0924e-02	2.7163e-02	1.1259e+03
476	7.2319e-02	1.8778e-01	1.6161e-01	-8.0610e-02	2.9714e+02
477	7.4620e-02	1.1520e-01	1.4177e-02	-3.0342e-02	9.7838e+02
478	8.5827e-02	1.0937e-01	-4.9983e-02	6.4401e-04	1.0790e+03
479	7.0488e-02	1.7501e-01	1.1027e-01	-9.5163e-02	5.0127e+02
480	1.4191e-01	1.2567e-01	6.1157e-02	-4.7659e-02	8.9063e+02
481	1.3519e-01	1.4298e-01	1.1681e-01	-1.0185e-01	7.5098e+02
482	1.4697e-01	7.1100e-02	-8.1607e-02	-1.1315e-01	1.4147e+03
483	1.0402e-01	6.7662e-02	-4.3122e-02	-7.4881e-02	1.4260e+03
484	1.3680e-01	8.2383e-02	-1.3199e-02	-1.0805e-01	1.3359e+03
485	1.1412e-01	9.0242e-02	4.6278e-02	-5.2836e-02	1.2220e+03
486	1.6457e-01	9.0848e-02	-1.1669e-03	-9.7797e-02	1.2627e+03
487	2.0229e-01	9.3708e-02	8.6724e-02	-1.4144e-01	1.1594e+03
488	1.5261e-01	8.8997e-02	2.9880e-02	-7.7466e-02	1.2630e+03
489	2.1219e-01	9.2546e-02	1.2199e-01	-1.2344e-01	1.2072e+03
490	1.9701e-01	7.9133e-02	6.5625e-02	-1.1309e-01	1.3611e+03
491	1.5146e-01	1.2175e-01	5.5813e-02	-8.9896e-02	9.9229e+02
492	1.3018e-01	1.7393e-01	3.0173e-01	-9.3085e-02	3.3633e+02
493	1.1969e-01	1.5116e-01	1.6213e-01	-5.8672e-02	6.7844e+02
494	1.9149e-01	9.6989e-02	7.1187e-02	-2.0691e-01	1.1594e+03
495	2.0822e-01	1.5624e-01	1.9775e-01	-9.8167e-02	5.5977e+02
496	1.9888e-01	1.3680e-01	1.1840e-01	-6.9847e-02	7.7295e+02
497	1.6040e-01	1.1551e-01	7.4459e-02	-1.1337e-01	1.0444e+03
498	1.9463e-01	1.4702e-01	2.6210e-01	-1.1653e-01	7.0119e+02
499	2.4029e-01	1.6778e-01	2.9802e-01	-1.7209e-01	4.5002e+02