variables="k","x","y","vx","vy","pressure"
zone i=8064 j=1
0	4.3529e-02	1.5574e-01	1.9876e-02	-7.5486e-02	5.0854e+02
1	2.4552e-02	1.5447e-01	3.6733e-02	-8.3930e-02	4.6684e+02
2	1.0777e-01	1.2867e-01	1.5548e-01	-9.0652e-02	6.2443e+02
3	1.9281e-01	1.2697e-01	2.8506e-01	-9.2426e-02	5.4303e+02
4	7.7980e-02	9.9412e-02	-4.5339e-03	-2.3408e-02	1.0848e+03
5	1.6849e-01	1.2621e-01	1.9683e-01	-9.2577e-02	5.8091e+02
6	2.2014e-01	1.5244e-01	2.5525e-01	-7.5312e-02	2.0148e+02
7	2.4814e-01	1.6920e-01	3.5834e-01	-1.6142e-02	3.6376e+01
8	-4.9717e-04	1.5939e-01	3.4354e-02	-1.2982e-01	6.0117e+02
9	1.3346e-01	1.6788e-01	3.4566e-01	-7.2998e-02	5.9839e+01
10	1.8021e-01	1.0628e-01	1.4548e-01	-2.9692e-02	7.4481e+02
11	9.2059e-02	1.7751e-01	2.5158e-01	-1.8049e-01	0.0000e+00
12	2.0832e-01	1.6778e-01	3.4752e-01	-5.0682e-02	0.0000e+00
13	3.9332e-01	1.6444e-01	3.6150e-01	-1.5214e-01	5.6659e+01
14	1.0970e-01	1.4963e-01	2.2002e-01	-1.3194e-01	4.0454e+02
15	2.1682e-01	1.6987e-01	3.3200e-01	-1.2973e-01	0.0000e+00
16	3.0156e-01	1.7262e-01	2.7591e-01	-1.4200e-01	8.5778e+01
17	3.7102e-01	1.5458e-01	3.7155e-01	-2.2112e-01	2.2349e+02
18	3.3212e-01	1.7611e-01	3.5742e-01	-1.0918e-01	0.0000e+00
19	3.0390e-02	1.7728e-01	4.8001e-02	-1.2446e-01	1.7470e+02
20	3.0482e-01	1.7612e-01	4.0601e-01	-1.6504e-01	0.0000e+00
21	1.8689e-02	1.7756e-01	3.2233e-02	-1.1393e-01	9.5608e+01
22	1.6728e-01	1.1345e-01	2.1787e-01	-7.3312e-02	6.5688e+02
23	2.3994e-01	1.3729e-01	1.6580e-01	2.5823e-02	3.6415e+02
24	3.7044e-01	1.7099e-01	4.1688e-01	-1.6674e-01	6.7308e+01
25	-6.1325e-05	1.7468e-01	9.4238e-02	-1.6241e-01	0.0000e+00
26	1.4152e-01	7.7216e-02	2.3227e-02	-3.6698e-02	1.1306e+03
27	3.1317e-01	1.7483e-01	3.2099e-01	-1.4037e-01	2.4625e+01
28	4.4332e-01	1.6516e-01	4.5670e-01	-3.5692e-02	1.6515e+02
29	3.8715e-01	1.5942e-01	4.3005e-01	-1.1741e-01	1.1132e+02
30	-2.3045e-04	1.7584e-01	3.7182e-01	-7.8142e-02	0.0000e+00
31	2.3031e-01	8.5701e-02	1.3622e-01	-4.9867e-02	8.1046e+02
32	5.1983e-01	1.5480e-01	4.0823e-01	-1.0122e-01	2.5968e+02
33	4.6063e-01	1.3307e-01	3.5728e-01	-2.2439e-01	5.7194e+02
34	4.9265e-01	1.5403e-01	2.6720e-01	-4.0934e-02	4.2655e+02
35	4.7312e-01	1.3351e-01	3.4275e-01	-7.1893e-02	5.5362e+02
36	4.9555e-01	1.4320e-01	3.3477e-01	-1.2644e-01	4.0883e+02
37	3.9823e-01	1.5290e-01	3.4096e-01	-1.0127e-01	4.5150e+02
38	4.8316e-01	1.1274e-01	2.3818e-01	-5.8814e-02	7.1398e+02
39	6.2236e-01	1.7382e-01	4.6444e-01	-6.8336e-02	0.0000e+00
40	5.7950e-01	1.7366e-01	4.8968e-01	-1.6110e-01	0.0000e+00
41	3.3204e-01	1.2782e-01	1.7146e-01	-1.6731e-01	4.6914e+02
42	2.8266e-01	9.9548e-02	1.4849e-01	-6.0448e-02	6.4791e+02
43	4.4225e-01	1.6157e-01	4.0313e-01	-8.7751e-02	1.3399e+02
44	4.2107e-01	1.3541e-01	2.9520e-01	-3.0209e-02	4.7382e+02
45	5.0616e-01	1.6171e-01	4.1619e-01	-7.4652e-02	2.0319e+02
46	3.1201e-01	1.3577e-01	2.7835e-01	-8.7301e-02	4.1391e+02
47	5.2323e-01	1.7328e-01	4.0338e-01	-1.2075e-01	2.5235e+01
48	5.2589e-01	1.6127e-01	3.5141e-01	-8.9209e-02	1.9042e+02
49	6.8366e-01	1.7015e-01	4.7326e-01	-1.0071e-01	7.5449e+01
50	7.0007e-01	1.6920e-01	5.0495e-01	-9.6040e-02	9.6592e+01
51	4.7280e-01	1.4931e-01	2.1374e-01	-8.2640e-03	2.9422e+02
52	3.2730e-01	1.1187e-01	1.3706e-01	-7.3495e-02	6.5139e+02
53	7.1156e-01	1.6965e-01	4.9815e-01	-5.6288e-02	1.0004e+02
54	4.8885e-01	1.2280e-01	3.7322e-01	-7.5462e-02	5.9047e+02
55	5.3352e-01	1.4554e-01	4.4768e-01	-1.1034e-01	2.4539e+02
56	3.1240e-01	1.0681e-01	1.1721e-01	-1.4046e-01	6.4875e+02
57	6.0783e-01	1.5035e-01	3.8250e-01	-1.2074e-01	1.6330e+02
58	6.6501e-01	1.6932e-01	4.4410e-01	-8.9729e-02	7.6628e+01
59	3.0395e-01	1.1891e-01	1.3211e-01	-9.6447e-02	4.6745e+02
60	6.9705e-01	1.5101e-01	4.8197e-01	-1.3469e-01	1.9551e+02
61	3.7959e-01	1.2447e-01	1.2377e-01	-1.0426e-01	4.8046e+02
62	6.5898e-01	1.5023e-01	4.8760e-01	-7.3110e-02	1.0861e+02
63	7.1079e-01	1.3637e-01	4.7469e-01	-1.2070e-01	2.9320e+02
64	2.2842e-02	-1.4385e-03	-2.5899e-02	8.7817e-03	2.1417e+03
65	-1.0949e-03	2.9600e-02	-1.1236e-01	3.4838e-02	1.9079e+03
66	7.0165e-03	-7.3475e-04	-3.0318e-02	1.6506e-01	2.1617e+03
67	1.1232e-01	1.4028e-01	1.8960e-01	-2.0693e-02	5.5310e+02
68	4.2026e-02	1.4408e-01	3.0318e-02	-1.8774e-02	5.6642e+02
69	1.6847e-01	1.1851e-01	1.6711e-01	-1.0673e-01	6.1682e+02
70	1.6068e-01	1.6746e-01	3.9286e-01	-1.3158e-01	3.1922e+01
71	1.5461e-01	1.0029e-01	6.3132e-02	4.2206e-02	8.6153e+02
72	1.9753e-01	1.5989e-01	4.1312e-01	-6.3243e-02	2.2702e+02
73	1.8903e-02	1.7806e-01	-1.6236e-02	-9.9455e-02	5.5122e+01
74	2.0592e-01	1.4654e-01	3.6181e-01	-9.9976e-02	3.1077e+02
75	1.4101e-01	1.6820e-01	4.1392e-01	-1.0278e-01	3.7905e+01
76	1.4732e-01	1.4635e-01	2.6568e-01	-8.4695e-03	3.9745e+02
77	1.6596e-01	1.6492e-01	4.4246e-01	-1.4265e-01	8.1348e+01
78	2.6200e-01	1.6954e-01	3.1128e-01	-4.1521e-02	4.1350e+01
79	2.1133e-01	1.7008e-01	3.3089e-01	-3.8701e-02	0.0000e+00
80	5.4762e-02	1.8151e-01	1.8720e-01	-1.8164e-01	0.0000e+00
81	1.6288e-01	1.4491e-01	3.4291e-01	-7.1487e-02	3.5759e+02
82	2.2406e-01	1.6575e-01	3.5835e-01	-9.1310e-02	5.6776e+01
83	3.2862e-01	1.5656e-01	3.5033e-01	-1.2189e-01	1.1971e+02
84	2.7208e-01	1.5313e-01	3.0835e-01	-9.4021e-02	3.0684e+02
85	4.0628e-01	1.4474e-01	3.9107e-01	-1.0779e-01	3.2130e+02
86	4.7708e-01	1.5574e-01	3.4444e-01	-1.4054e-01	1.7835e+02
87	2.0678e-01	1.1682e-01	1.8731e-01	-7.5765e-02	5.5311e+02
88	3.4528e-01	1.5322e-01	3.0078e-01	-7.7573e-02	2.8996e+02
89	3.9798e-01	1.6440e-01	4.9932e-01	-1.5587e-01	1.7808e+01
90	4.9688e-01	1.6925e-01	4.7743e-01	-2.9579e-01	-7.6353e+01
91	1.9797e-01	1.2703e-01	2.1406e-01	-3.3558e-02	5.0365e+02
92	3.3870e-01	1.7547e-01	3.7829e-01	-1.4620e-01	-1.1932e+01
93	3.9988e-01	1.4806e-01	3.3216e-01	-1.4349e-01	4.2461e+02
94	3.0353e-01	1.6146e-01	2.9898e-01	-4.6659e-02	2.6838e+02
95	1.6739e-01	4.0443e-02	-4.3172e-02	-9.1522e-02	1.3824e+03
96	4.7129e-01	1.6440e-01	3.0697e-01	-4.5999e-02	1.3375e+02
97	4.4163e-01	1.6616e-01	4.2111e-01	-2.3205e-02	1.4683e+02
98	3.7651e-01	1.4503e-01	3.1457e-01	-1.4859e-01	3.4771e+02
99	4.8331e-01	1.7488e-01	3.6197e-01	-1.0202e-01	0.0000e+00
100	4.6709e-01	1.7243e-01	4.2891e-01	-1.5322e-02	1.1963e+02
101	2.7326e-01	1.0711e-01	1.0726e-01	-3.2262e-02	5.1624e+02
102	5.0264e-01	1.7694e-01	3.0607e-01	-6.9711e-02	0.0000e+00
103	5.2231e-01	1.6947e-01	3.7530e-01	-1.0364e-01	2.7090e+01
104	4.5810e-01	1.5489e-01	4.0275e-01	-6.0434e-02	3.8749e+02
105	5.7309e-01	1.7349e-01	4.4081e-01	-1.2643e-01	4.8225e+00
106	4.6606e-01	1.1805e-01	2.9525e-01	-1.0454e-01	6.4832e+02
107	5.3363e-01	1.3242e-01	3.5243e-01	-1.4657e-01	3.2798e+02
108	5.4071e-01	1.5794e-01	3.3916e-01	-1.4954e-01	1.2441e+02
109	4.8735e-01	1.6851e-01	2.7102e-01	-1.2967e-01	-7.0652e+01
110	4.8582e-01	1.5895e-01	3.4530e-01	-1.0537e-01	3.3955e+02
111	5.6845e-01	1.4224e-01	3.6784e-01	-8.6381e-02	2.3156e+02
112	5.7222e-01	1.5434e-01	3.7609e-01	-1.0971e-01	2.2025e+02
113	4.6378e-01	1.0441e-01	2.2681e-01	-1.6015e-01	8.3406e+02
114	5.9973e-01	1.7239e-01	4.7639e-01	-1.1256e-01	-1.6932e+01
115	4.7888e-01	1.0509e-01	3.0051e-01	-7.3901e-02	7.8422e+02
116	5.3974e-01	1.5406e-01	3.5572e-01	-9.2109e-02	2.8794e+02
117	5.9294e-01	1.4724e-01	4.0420e-01	-8.0543e-02	1.3583e+02
118	6.8317e-01	1.7093e-01	5.0104e-01	-9.6824e-02	7.1002e+01
119	6.6441e-01	1.6753e-01	5.6586e-01	-1.1626e-01	8.1084e+01
120	6.2783e-01	1.5650e-01	4.9929e-01	-8.3314e-02	1.2824e+02
121	5.8948e-01	1.6526e-01	5.0739e-01	-1.0199e-01	6.9651e+01
122	6.4469e-01	1.7270e-01	4.6650e-01	-1.7546e-01	0.0000e+00
123	5.5503e-01	1.6571e-01	4.4081e-01	-6.8642e-02	-2.7164e+01
124	3.6836e-01	1.0563e-01	1.8563e-01	-5.0654e-02	7.1239e+02
125	7.2371e-01	1.7089e-01	4.2784e-01	-1.0870e-01	0.0000e+00
126	5.3905e-01	1.1449e-01	3.3085e-01	-5.8801e-02	4.7882e+02
127	4.3845e-01	8.6942e-02	1.7537e-01	-8.5098e-02	9.8561e+02
128	5.6715e-02	1.3410e-01	1.2768e-01	-1.1793e-02	6.2001e+02
129	-2.8965e-04	1.4809e-01	1.0802e-01	-1.2544e-01	8.4497e+02
130	1.2470e-01	1.3906e-01	2.6083e-01	-7.8354e-02	5.4437e+02
131	1.4127e-02	1.1558e-01	-1.6015e-02	1.3879e-02	9.7908e+02
132	1.5257e-02	1.0429e-01	-1.9312e-03	9.4622e-03	1.1176e+03
133	1.2746e-01	1.2353e-01	1.2320e-01	-1.6116e-01	6.7854e+02
134	1.6088e-01	1.6741e-01	3.2116e-01	-1.1737e-01	1.4197e+00
135	6.1131e-02	1.4289e-01	2.0430e-01	1.0842e-02	5.7811e+02
136	1.4494e-01	1.3444e-01	2.9837e-01	-1.3852e-01	4.5197e+02
137	1.7847e-01	1.6520e-01	3.6754e-01	-8.5251e-02	5.0451e+01
138	2.0537e-01	1.6274e-01	2.6723e-01	3.4895e-02	1.3970e+02
139	8.0245e-02	1.7718e-01	2.2099e-01	-4.7074e-02	-1.2724e+01
140	1.0307e-01	1.5945e-01	1.2635e-01	-7.5830e-02	3.1275e+02
141	1.3230e-01	1.6941e-01	2.9747e-01	-8.9994e-02	7.0432e+01
142	1.5674e-01	1.6581e-01	3.3982e-01	-1.6380e-01	1.7021e+02
143	1.6899e-01	1.4161e-01	2.6231e-01	-1.4157e-01	3.1678e+02
144	1.1659e-01	1.6614e-01	3.5798e-01	-1.8636e-01	1.6423e+02
145	1.1986e-01	1.0654e-01	1.2169e-01	1.8887e-02	8.7940e+02
146	3.7010e-01	1.7159e-01	4.5196e-01	-1.7709e-01	7.0305e+01
147	2.6098e-01	9.0340e-02	1.1779e-01	-1.1180e-01	7.8636e+02
148	4.8705e-01	1.7046e-01	2.8750e-01	-1.8131e-01	8.9706e+01
149	1.2419e-01	1.3860e-01	1.7711e-01	-1.0178e-02	5.2474e+02
150	3.1724e-01	1.3886e-01	2.0852e-01	-1.3028e-01	3.2935e+02
151	2.2802e-01	1.2472e-01	2.3076e-01	-1.4512e-01	4.9377e+02
152	3.6580e-01	1.5964e-01	3.7681e-01	-1.6906e-01	2.2339e+02
153	2.7261e-01	1.7147e-01	3.4830e-01	-2.5823e-02	2.7304e+01
154	2.2921e-01	1.6694e-01	3.5978e-01	-8.3227e-02	4.0801e+01
155	3.5385e-01	1.7125e-01	4.3327e-01	-2.0115e-01	6.7104e+01
156	2.9024e-01	1.7274e-01	3.0758e-01	-5.2049e-02	5.5484e+01
157	3.8476e-01	1.2540e-01	2.8357e-01	-1.7450e-01	5.4299e+02
158	3.8951e-01	1.6290e-01	4.4048e-01	-1.6260e-01	1.4712e+02
159	1.2852e-01	1.0334e-01	1.1387e-01	-2.9722e-02	9.5392e+02
160	2.8026e-01	1.3467e-01	2.6526e-01	-9.9238e-02	3.2534e+02
161	5.1174e-01	1.4867e-01	3.3149e-01	-6.2747e-02	2.9984e+02
162	4.7131e-01	1.7393e-01	4.8097e-01	-3.0968e-02	0.0000e+00
163	2.6216e-01	1.3603e-01	1.7306e-01	-9.1500e-02	3.3067e+02
164	1.8532e-01	1.6142e-01	3.3224e-01	-9.6155e-02	5.8821e+01
165	5.5808e-01	1.5973e-01	3.6125e-01	-3.7019e-02	2.0756e+02
166	5.9710e-01	1.7267e-01	5.0017e-01	-1.2890e-01	1.8161e+01
167	5.4280e-01	1.7064e-01	4.5601e-01	-1.2252e-01	3.6960e+01
168	4.4480e-01	1.1543e-01	2.1994e-01	-1.6333e-01	6.9190e+02
169	5.2916e-01	1.6994e-01	4.4903e-01	-1.1518e-01	2.9327e+01
170	5.6749e-01	1.7128e-01	4.6726e-01	-9.1381e-02	-3.8641e+00
171	3.1470e-01	1.7462e-01	4.2437e-01	-1.4329e-01	3.5817e+01
172	4.4715e-01	1.6679e-01	3.9520e-01	1.4790e-02	9.3828e+01
173	2.8195e-01	1.2669e-01	1.7453e-01	-3.7809e-02	5.0161e+02
174	6.2013e-01	1.7470e-01	4.7743e-01	-5.0107e-02	5.5161e+01
175	6.1397e-01	1.6264e-01	5.4352e-01	-7.4379e-02	1.1352e+02
176	6.6355e-01	1.4328e-01	3.8027e-01	-1.0692e-01	1.9669e+02
177	4.9957e-01	1.5330e-01	3.6537e-01	-1.4900e-01	2.6528e+02
178	5.5772e-01	1.7013e-01	4.3988e-01	-1.1174e-01	6.6985e+01
179	4.8585e-01	1.2041e-01	3.4134e-01	-1.4072e-01	6.2311e+02
180	5.0574e-01	1.7504e-01	3.8806e-01	-9.9211e-02	0.0000e+00
181	3.7049e-01	1.3774e-01	2.2512e-01	-1.0868e-01	5.3571e+02
182	4.9225e-01	1.3660e-01	3.9162e-01	1.3699e-02	4.3957e+02
183	6.3259e-01	1.7249e-01	4.7325e-01	-9.3515e-02	3.1278e+01
184	5.5307e-01	1.5249e-01	4.1315e-01	-8.4934e-02	1.8889e+02
185	6.7794e-01	1.7195e-01	4.8162e-01	-9.0078e-02	3.4857e+01
186	6.2332e-01	1.7314e-01	4.3798e-01	-1.1365e-01	0.0000e+00
187	5.5248e-01	1.3149e-01	3.3619e-01	-1.1137e-01	3.4844e+02
188	6.0360e-01	1.5539e-01	4.5244e-01	-1.0554e-01	1.6124e+02
189	5.5965e-01	1.3859e-01	3.7287e-01	-8.3335e-02	2.6345e+02
190	3.3943e-01	9.8262e-02	1.7977e-01	-8.4273e-02	7.8851e+02
191	4.2477e-01	9.1496e-02	2.0425e-01	-8.4591e-02	9.3275e+02
192	5.4795e-02	1.5161e-01	1.8129e-01	1.9798e-02	2.9781e+02
193	2.7433e-02	1.1002e-01	6.1297e-02	-1.9328e-02	9.9171e+02
194	2.1860e-02	1.4349e-01	-1.7393e-02	2.9478e-02	4.6172e+02
195	1.9053e-01	1.3504e-01	2.4800e-01	-7.6903e-02	5.3685e+02
196	-4.3869e-04	1.3637e-01	2.1465e-01	-1.2268e-01	8.6802e+02
197	1.6597e-02	1.6587e-01	1.2216e-02	-1.2262e-01	2.8826e+02
198	7.7333e-02	1.4865e-01	1.6780e-01	-7.8600e-03	4.2260e+02
199	2.4764e-01	1.5676e-01	3.3770e-01	-5.3026e-02	1.8897e+02
200	5.2870e-02	1.7692e-01	1.3836e-01	-1.8084e-01	1.1309e+02
201	8.3200e-02	1.0638e-01	4.9270e-02	3.2123e-02	9.4499e+02
202	1.9212e-01	1.5347e-01	3.4192e-01	-9.4453e-02	9.8958e+01
203	4.0331e-02	4.3501e-02	-5.7246e-02	1.9226e-02	1.8624e+03
204	9.5173e-02	1.5137e-01	2.4475e-01	-1.3697e-01	4.4949e+02
205	6.9708e-02	1.5453e-01	1.5591e-01	-1.2878e-01	5.0241e+02
206	1.1565e-01	1.5958e-01	2.8963e-01	-1.3331e-02	3.0704e+02
207	2.1220e-01	1.3462e-01	3.0868e-01	-9.6913e-02	3.8748e+02
208	2.3856e-01	1.6550e-01	4.1156e-01	-4.9096e-02	1.4984e+02
209	4.7893e-02	1.6486e-01	1.4610e-01	-1.5654e-01	3.7089e+02
210	3.2071e-01	1.7534e-01	3.6762e-01	-1.1273e-01	4.2261e+01
211	1.0520e-01	1.7222e-01	2.6052e-01	-1.1901e-01	1.9815e+02
212	1.4460e-01	1.4857e-01	1.8561e-01	-9.9376e-02	4.7078e+02
213	4.5415e-02	1.7566e-01	5.2845e-02	-1.9466e-01	4.9664e+01
214	2.9215e-01	1.7392e-01	3.0044e-01	-1.7494e-01	0.0000e+00
215	2.9267e-01	1.4891e-01	2.8782e-01	-1.7150e-01	2.1393e+02
216	1.9419e-01	1.6384e-01	3.2855e-01	-5.4286e-02	5.3549e+01
217	2.1431e-01	9.3219e-02	-4.0401e-03	-1.4220e-01	7.6677e+02
218	3.8159e-01	1.6190e-01	3.8396e-01	-2.0162e-01	1.1667e+02
219	1.7812e-01	1.5735e-01	3.0408e-01	-1.2597e-01	1.9681e+02
220	1.4409e-01	1.6893e-01	2.9313e-01	-1.0647e-01	1.2246e+02
221	3.3264e-01	1.7571e-01	3.1849e-01	-1.6635e-01	2.3420e+02
222	1.8164e-01	8.1200e-02	6.5012e-02	-8.2443e-02	9.9329e+02
223	6.9361e-02	1.7472e-01	1.5225e-01	-9.5230e-02	9.4685e+01
224	3.1585e-01	1.6202e-01	2.9264e-01	-1.9297e-01	1.7613e+02
225	4.2312e-01	1.6571e-01	5.0032e-01	-5.8822e-02	9.6960e+01
226	2.1586e-01	8.2543e-02	1.1346e-01	-6.6389e-02	8.5431e+02
227	4.2485e-01	1.5313e-01	3.1552e-01	-1.4285e-01	3.1484e+02
228	4.2357e-01	1.0463e-01	2.1185e-01	-1.2490e-01	8.1070e+02
229	5.4644e-01	1.6930e-01	4.1167e-01	-1.1178e-01	2.3993e+01
230	2.3789e-01	1.3132e-01	2.1751e-01	2.1753e-04	3.3804e+02
231	2.6713e-01	1.1884e-01	1.6661e-01	-8.1326e-02	5.0434e+02
232	5.0450e-01	1.7540e-01	4.1015e-01	-1.1549e-01	0.0000e+00
233	3.2771e-01	1.2053e-01	1.8768e-01	-1.7039e-01	4.8144e+02
234	3.8631e-01	1.4308e-01	3.9567e-01	-1.3353e-01	4.0165e+02
235	4.5296e-01	1.2171e-01	2.5747e-01	-6.1257e-02	5.3589e+02
236	5.0933e-01	1.3832e-01	4.4658e-01	-4.6887e-02	3.7779e+02
237	2.9859e-01	1.2933e-01	2.3499e-01	-8.4466e-02	4.6147e+02
238	2.4448e-01	6.7483e-02	1.7379e-02	-6.5826e-02	8.9417e+02
239	4.4352e-01	1.0363e-01	2.5030e-01	-4.7556e-02	8.4167e+02
240	5.8226e-01	1.7372e-01	4.2968e-01	-1.3322e-01	2.1598e+01
241	6.0275e-01	1.7318e-01	4.6558e-01	-9.6624e-02	-4.0398e+01
242	4.9834e-01	1.1191e-01	2.9964e-01	-1.2447e-01	7.1004e+02
243	4.2742e-01	1.1183e-01	2.2701e-01	-4.3230e-02	6.7418e+02
244	2.2070e-01	1.4610e-01	2.3269e-01	-1.1610e-01	2.5369e+02
245	3.4193e-01	1.4783e-01	2.8006e-01	-1.2637e-01	3.0381e+02
246	2.9435e-01	1.0588e-01	1.5786e-01	-1.4187e-01	6.1399e+02
247	3.8202e-01	1.0994e-01	1.7183e-01	-1.5710e-01	7.3592e+02
248	5.0073e-01	1.3736e-01	3.1771e-01	-5.5750e-02	3.6643e+02
249	2.9754e-01	1.0309e-01	1.2315e-01	-1.1972e-01	6.5405e+02
250	2.4341e-01	1.1525e-01	1.7208e-01	-2.1687e-02	4.9505e+02
251	4.0090e-01	1.2191e-01	2.4093e-01	-1.5682e-01	6.0117e+02
252	4.4920e-01	1.0152e-01	1.6454e-01	-1.8295e-02	8.5978e+02
253	2.1574e-01	9.7124e-02	2.4706e-02	-6.5228e-02	6.9333e+02
254	4.6275e-01	1.4957e-01	3.2586e-01	-1.1957e-02	3.5645e+02
255	7.2800e-01	1.7120e-01	4.6272e-01	-1.1428e-01	8.2263e+01
256	9.6847e-02	1.7798e-01	2.6395e-01	-1.8823e-01	0.0000e+00
257	1.8555e-02	5.7247e-02	-9.5493e-03	-2.2567e-02	1.6775e+03
258	5.2467e-04	1.7917e-02	1.5816e-02	-1.2592e-02	2.1018e+03
259	1.8207e-01	1.3859e-01	2.7112e-01	-1.2497e-03	4.9017e+02
260	6.0549e-02	1.4758e-01	2.0154e-01	-7.4854e-02	5.2495e+02
261	2.6568e-02	1.2495e-01	5.7491e-02	-8.8029e-02	7.6731e+02
262	2.2173e-03	6.9172e-02	-5.7397e-02	9.1021e-02	1.5281e+03
263	1.5175e-01	1.1544e-01	6.9617e-02	-1.4759e-02	6.8946e+02
264	4.3804e-02	1.2198e-01	9.4307e-02	-2.4176e-02	8.7615e+02
265	4.2108e-02	1.1266e-01	3.4887e-02	5.7502e-02	9.7511e+02
266	1.7866e-01	1.0782e-01	1.8085e-01	-1.1523e-01	7.1102e+02
267	8.4681e-02	2.2805e-02	-5.0183e-02	4.9715e-02	1.8168e+03
268	9.3831e-02	1.7538e-01	2.0094e-01	-1.8687e-01	0.0000e+00
269	1.0790e-01	1.7308e-01	1.9464e-01	-8.4074e-02	7.0501e+01
270	1.1253e-01	8.2724e-02	2.2255e-02	6.1895e-02	1.1582e+03
271	1.3574e-01	1.2354e-01	1.5428e-01	-1.1723e-02	5.8991e+02
272	6.6845e-02	1.3383e-01	1.4176e-01	-1.6939e-02	7.3461e+02
273	5.9292e-02	5.1156e-02	-1.2353e-02	5.6079e-02	1.7061e+03
274	2.3165e-01	1.4585e-01	3.0609e-01	-3.4805e-02	3.1085e+02
275	2.2347e-01	1.3002e-01	2.1733e-01	-1.4688e-01	4.2710e+02
276	2.2184e-01	1.0824e-01	2.1102e-01	-1.0048e-01	5.6581e+02
277	3.4370e-01	1.5995e-01	3.9440e-01	-6.2420e-02	3.6232e+02
278	3.1547e-01	1.2804e-01	1.6939e-01	-1.5289e-01	4.4678e+02
279	2.7364e-01	1.7034e-01	3.0556e-01	-1.7644e-02	-1.9474e+01
280	3.6193e-01	1.5589e-01	3.7256e-01	-1.2192e-01	4.0297e+02
281	1.7217e-02	1.7736e-01	2.2383e-02	-1.1806e-01	9.7020e+01
282	3.7076e-01	1.7139e-01	4.2947e-01	-1.7149e-01	7.2248e+01
283	2.9627e-01	1.3607e-01	2.8423e-01	-1.5758e-01	3.7634e+02
284	2.1795e-01	1.1202e-01	1.1065e-01	-7.7241e-02	5.6260e+02
285	2.6628e-01	1.5593e-01	3.7443e-01	-7.6971e-02	1.9206e+02
286	1.5080e-01	8.9443e-02	5.9367e-03	-1.3205e-02	8.9588e+02
287	1.5423e-01	1.3709e-01	1.5878e-01	4.4081e-02	4.8003e+02
288	2.7439e-01	1.3948e-01	2.7190e-01	-6.8011e-02	2.7446e+02
289	9.5477e-02	8.9570e-02	-1.7019e-02	1.7669e-02	1.1502e+03
290	2.9693e-01	1.5880e-01	2.7884e-01	-1.4441e-01	1.3723e+02
291	9.5069e-02	1.3370e-01	1.5517e-01	-1.0197e-02	5.9540e+02
292	4.2132e-01	1.4135e-01	2.9128e-01	-1.1016e-01	3.9483e+02
293	3.1932e-01	1.5367e-01	2.6585e-01	-1.2799e-01	2.3695e+02
294	2.3787e-01	1.1199e-01	2.1125e-01	-9.1543e-02	5.6433e+02
295	1.8914e-01	1.0229e-01	1.2006e-01	-4.9363e-02	7.6787e+02
296	2.6527e-01	1.2919e-01	2.0468e-01	-4.2494e-02	3.9870e+02
297	2.4799e-01	1.6799e-01	3.4382e-01	-1.5214e-02	3.1756e+01
298	4.0743e-01	1.6398e-01	4.2996e-01	-1.4018e-01	-4.4077e+01
299	1.2488e-01	8.5750e-02	6.3034e-02	-6.7618e-03	1.0431e+03
300	1.9654e-01	6.8278e-02	-4.7231e-02	-1.1068e-01	1.0169e+03
301	4.1056e-01	1.6762e-01	4.4914e-01	-1.6259e-01	0.0000e+00
302	5.2728e-01	1.4815e-01	3.9693e-01	-8.5304e-02	2.6420e+02
303	2.4977e-01	1.2782e-01	1.9690e-01	-6.3427e-02	4.2678e+02
304	4.4730e-01	1.4089e-01	3.7098e-01	-8.9056e-02	4.3868e+02
305	5.5277e-01	1.4115e-01	3.3998e-01	-8.9293e-02	3.2491e+02
306	4.2505e-01	1.6972e-01	4.2441e-01	-7.8272e-02	0.0000e+00
307	5.7655e-01	1.5989e-01	4.4263e-01	-1.2903e-01	1.6956e+02
308	4.1187e-01	1.2993e-01	2.9092e-01	-1.7463e-01	5.5748e+02
309	5.1745e-01	1.3963e-01	3.3778e-01	-1.1117e-01	4.5450e+02
310	4.7470e-01	1.4577e-01	3.7527e-01	-2.0326e-01	1.7845e+02
311	4.5377e-01	1.3642e-01	3.5868e-01	-7.2368e-02	3.9195e+02
312	2.8852e-01	1.5228e-01	2.7634e-01	-1.3553e-01	1.9023e+02
313	3.1019e-01	1.1884e-01	1.3833e-01	-1.2009e-01	5.1680e+02
314	6.4839e-01	1.7154e-01	4.6838e-01	-6.2950e-02	-4.3832e+01
315	6.3967e-01	1.7415e-01	5.1425e-01	-8.7858e-02	-2.4219e+01
316	4.3205e-01	1.6654e-01	4.9180e-01	-1.9161e-02	7.0815e+01
317	5.1019e-01	1.6358e-01	3.6033e-01	-4.2947e-02	2.7701e+02
318	6.7427e-01	1.5208e-01	4.7732e-01	-1.5773e-01	1.2709e+02
319	6.5915e-01	1.6887e-01	5.0889e-01	-9.3001e-02	-3.0642e+00
320	2.8727e-02	4.8579e-02	-3.1428e-02	6.6928e-02	1.8577e+03
321	1.3773e-02	1.3586e-01	9.9026e-02	-2.6841e-02	6.9435e+02
322	4.4342e-02	2.9553e-02	-1.1264e-02	6.8813e-02	1.9992e+03
323	7.7138e-02	1.2674e-01	1.7662e-01	-1.0850e-02	7.6678e+02
324	1.2611e-01	5.6374e-05	-3.5448e-02	1.2838e-01	1.8006e+03
325	2.6567e-02	1.5865e-01	1.0469e-01	6.4875e-02	4.3424e+02
326	9.2135e-02	1.5525e-01	2.4046e-01	-2.0441e-02	4.2607e+02
327	1.8748e-01	1.4826e-01	3.0590e-01	-6.4450e-02	2.5860e+02
328	5.4254e-02	1.7625e-01	1.0520e-01	-1.7842e-01	1.3606e+02
329	2.8256e-02	9.1652e-02	-2.4226e-02	1.1337e-01	1.2343e+03
330	7.0602e-02	1.6558e-01	2.3007e-01	-5.2585e-02	3.2608e+02
331	8.6872e-02	8.6220e-02	-2.0404e-02	-6.4723e-02	1.2417e+03
332	1.6643e-01	1.2969e-01	1.8315e-01	-1.2218e-01	5.6329e+02
333	2.1500e-02	1.2755e-01	-1.5935e-02	8.3997e-02	7.3232e+02
334	3.6928e-02	1.0309e-01	1.3313e-02	6.3297e-02	1.1150e+03
335	9.9735e-02	1.4332e-01	2.1242e-01	-3.4241e-02	5.6366e+02
336	1.1100e-01	1.6828e-01	2.9494e-01	-1.2949e-01	2.7943e+01
337	1.4036e-01	1.3306e-01	2.1434e-01	-2.3519e-02	4.5130e+02
338	6.1667e-02	1.1821e-01	5.5728e-02	6.9316e-02	9.1801e+02
339	8.1284e-02	5.6662e-02	1.7650e-02	-8.9896e-03	1.5594e+03
340	2.1615e-01	1.3574e-01	2.4913e-01	-4.9963e-02	3.9963e+02
341	1.3428e-01	1.6245e-01	2.7502e-01	-2.8960e-02	1.3926e+02
342	2.2157e-01	1.6739e-01	3.4298e-01	-1.0731e-01	1.6598e+02
343	3.5787e-01	1.6760e-01	4.2366e-01	-1.1214e-01	-4.0734e+01
344	2.7565e-01	1.5460e-01	2.3238e-01	-4.4753e-02	3.1466e+02
345	3.0478e-01	1.4051e-01	2.8108e-01	-1.0548e-01	3.7138e+02
346	4.1411e-01	1.6543e-01	4.7240e-01	-1.3829e-01	1.4510e+02
347	2.6153e-01	1.4761e-01	2.9374e-01	-3.8707e-02	2.2992e+02
348	6.9262e-02	1.3015e-01	8.6372e-02	-4.8107e-02	7.4240e+02
349	1.5000e-01	1.1885e-01	1.9048e-01	-1.9453e-02	6.3272e+02
350	8.0813e-02	8.4044e-02	-1.6492e-02	1.2883e-02	1.3013e+03
351	1.8337e-01	1.1814e-01	1.9952e-01	-8.2409e-02	5.3341e+02
352	2.3059e-01	1.5559e-01	3.1325e-01	-2.4927e-02	2.2281e+02
353	2.5414e-01	1.3833e-01	2.6962e-01	-8.1167e-02	3.3537e+02
354	2.5270e-01	1.4909e-01	2.6258e-01	-3.2129e-02	2.4211e+02
355	1.1958e-01	1.1045e-01	7.0300e-02	-5.4902e-02	8.8489e+02
356	1.4346e-01	9.0571e-02	5.2523e-02	-9.1474e-02	9.2093e+02
357	4.2957e-02	9.1047e-02	-6.5586e-02	1.0952e-02	1.2468e+03
358	2.3145e-01	1.1804e-01	2.2068e-01	-7.9021e-02	5.4229e+02
359	2.2696e-01	9.3950e-02	1.2798e-01	-1.1267e-01	6.8723e+02
360	2.6255e-01	1.1151e-01	1.1949e-01	-8.5030e-02	5.8436e+02
361	4.8342e-01	1.3916e-01	2.8229e-01	-1.3654e-01	4.4193e+02
362	1.9524e-01	1.1107e-01	1.3024e-01	-8.4163e-02	6.6340e+02
363	2.9434e-01	1.2050e-01	1.2148e-01	-2.9974e-02	4.0727e+02
364	2.0542e-01	9.7419e-02	1.8898e-01	-1.1847e-02	7.5490e+02
365	3.2720e-01	1.4276e-01	3.1305e-01	-1.5039e-01	3.5687e+02
366	2.8638e-01	1.7265e-01	3.4714e-01	-2.6952e-02	4.2505e+01
367	1.8765e-01	7.6811e-02	5.9800e-02	2.1308e-02	9.9628e+02
368	2.7540e-01	9.5021e-02	1.0822e-01	-6.2544e-02	6.6264e+02
369	2.5650e-01	1.0843e-01	1.6015e-01	-6.3334e-02	6.0281e+02
370	3.4434e-01	1.1428e-01	1.6903e-01	-1.1249e-01	5.8055e+02
371	4.7686e-01	1.2732e-01	3.5868e-01	-1.0090e-01	5.3654e+02
372	3.0215e-01	1.4749e-01	2.4676e-01	-5.7176e-02	2.5495e+02
373	5.4707e-01	1.4407e-01	4.2871e-01	-9.0302e-02	3.5143e+02
374	2.7378e-01	1.2772e-01	1.6289e-01	-9.5159e-02	3.9651e+02
375	6.0814e-01	1.7214e-01	5.3137e-01	-7.9251e-02	1.1918e+01
376	7.2283e-01	1.6945e-01	4.7741e-01	-7.8282e-02	9.0783e+01
377	4.6146e-01	1.6538e-01	2.9778e-01	-1.2008e-02	2.6354e+01
378	4.1805e-01	1.5334e-01	5.3231e-01	-4.9327e-02	4.4075e+02
379	4.5365e-01	1.2615e-01	3.4635e-01	-1.4692e-01	5.2494e+02
380	4.0863e-01	1.4026e-01	3.3726e-01	-1.1883e-01	3.9903e+02
381	3.5062e-01	1.2673e-01	1.7320e-01	-7.8334e-02	4.6843e+02
382	6.4848e-01	1.7302e-01	5.0922e-01	-1.0402e-01	4.4235e+01
383	6.3017e-01	1.5654e-01	4.3766e-01	-5.9461e-02	1.3841e+02
384	8.9344e-02	1.3565e-01	1.3341e-01	-4.1918e-02	6.1725e+02
385	2.4658e-02	1.4726e-02	3.3468e-02	-8.7079e-03	2.1055e+03
386	2.3285e-04	1.2528e-01	2.5477e-02	-5.4012e-02	9.4849e+02
387	8.1012e-02	1.3968e-01	1.6905e-01	2.6060e-02	5.8069e+02
388	1.5522e-02	1.5989e-01	-5.7306e-02	-5.9520e-02	4.2592e+02
389	1.0325e-01	1.0682e-01	1.0228e-01	-5.9877e-02	9.6002e+02
390	2.8280e-02	7.7334e-02	1.9688e-02	2.2649e-02	1.4423e+03
391	2.6553e-01	1.7055e-01	3.9931e-01	-3.5251e-02	7.1289e+01
392	4.8417e-02	1.5784e-01	1.0097e-01	-8.2921e-02	5.6945e+02
393	6.7692e-02	1.1030e-01	1.3584e-01	3.1653e-02	9.5225e+02
394	2.1874e-02	8.4220e-02	-5.0484e-02	2.8749e-02	1.3164e+03
395	7.9537e-02	1.7591e-01	1.5983e-01	-3.0000e-02	-1.1299e+02
396	6.8973e-02	9.0908e-02	2.9455e-02	5.8618e-02	1.1997e+03
397	7.4168e-02	3.1740e-02	1.7182e-02	-4.1422e-03	1.8585e+03
398	5.9874e-02	1.7537e-01	1.4245e-01	-1.2785e-01	8.8790e+01
399	1.1704e-01	4.8504e-02	-1.1776e-03	-1.0305e-01	1.5082e+03
400	4.3109e-02	7.8367e-02	-3.5217e-02	-2.7787e-02	1.4571e+03
401	2.1618e-01	1.2122e-01	2.4865e-01	-6.4576e-02	5.5764e+02
402	3.5876e-02	1.3303e-01	1.0644e-01	6.0844e-03	7.0147e+02
403	3.5356e-02	8.3816e-02	5.4431e-02	1.1304e-02	1.3271e+03
404	2.5164e-01	1.6886e-01	3.4874e-01	-2.5279e-02	5.3750e+01
405	8.5745e-02	1.2715e-01	1.1905e-01	1.0926e-02	7.3993e+02
406	7.8829e-02	7.6125e-02	-4.6416e-02	-1.4963e-02	1.3435e+03
407	1.4253e-01	1.0679e-01	1.2045e-01	-9.9229e-03	7.9902e+02
408	2.4770e-01	1.5117e-01	3.4438e-01	-4.7481e-02	2.7970e+02
409	5.5297e-02	1.1373e-01	9.6525e-03	-1.3644e-02	9.4991e+02
410	1.5513e-01	1.2631e-01	2.8265e-01	-3.0232e-02	6.2132e+02
411	3.1539e-01	1.5276e-01	3.3859e-01	-1.0758e-01	2.9303e+02
412	3.5445e-02	6.0216e-02	4.2107e-02	-7.8528e-02	1.6909e+03
413	9.7018e-02	1.1959e-01	5.5105e-02	-4.1052e-02	8.2226e+02
414	8.6193e-02	6.8451e-02	-2.6718e-02	2.6896e-02	1.3859e+03
415	3.2864e-01	1.6280e-01	2.9002e-01	-9.3055e-02	1.7231e+02
416	1.1143e-01	9.9120e-02	4.8264e-02	-2.1201e-02	9.5035e+02
417	2.8459e-01	1.6539e-01	3.4828e-01	-6.0350e-02	1.3807e+02
418	1.3247e-01	8.1456e-02	-2.3969e-02	5.0862e-03	1.0600e+03
419	9.7848e-02	8.1774e-02	2.9362e-02	5.9215e-02	1.2160e+03
420	1.6310e-01	1.5023e-01	2.6482e-01	-1.0802e-01	2.8577e+02
421	1.7401e-01	8.9917e-02	1.0252e-01	-7.3368e-02	8.8370e+02
422	1.4404e-01	1.0816e-01	1.1907e-01	3.1932e-02	7.8926e+02
423	1.9378e-01	9.5433e-02	4.3367e-02	-6.8837e-02	7.0322e+02
424	2.0442e-01	1.0649e-01	1.3615e-01	-9.7130e-02	7.2710e+02
425	2.5137e-01	5.6528e-02	1.8289e-01	-5.4076e-02	1.0119e+03
426	1.5859e-01	7.9296e-02	4.4760e-03	-2.1547e-02	9.8785e+02
427	1.5865e-01	8.4569e-02	-1.9507e-02	5.8261e-03	9.4430e+02
428	2.0314e-01	7.1693e-02	3.2067e-02	-7.7061e-02	9.7141e+02
429	2.3357e-01	1.4274e-01	2.5286e-01	-1.2506e-02	3.5857e+02
430	3.4743e-01	1.7203e-01	3.9749e-01	-2.3952e-01	2.2539e+02
431	2.0011e-01	8.6637e-02	5.9064e-02	-9.8946e-02	8.3765e+02
432	2.3349e-01	9.6198e-02	5.4070e-02	-4.5620e-02	7.6807e+02
433	2.8698e-01	1.0960e-01	1.9316e-01	-8.6973e-02	5.6960e+02
434	3.0224e-01	9.0367e-02	1.7776e-01	-1.4027e-01	7.5780e+02
435	4.3011e-01	1.4707e-01	4.3364e-01	-5.2284e-02	2.8472e+02
436	3.4992e-01	1.4454e-01	2.7465e-01	-1.4663e-01	3.4032e+02
437	3.4167e-01	1.2321e-01	2.4638e-01	-5.0671e-02	6.0843e+02
438	3.4631e-01	1.3123e-01	1.1886e-01	-2.2628e-01	5.0142e+02
439	5.3907e-01	1.7112e-01	4.0115e-01	-1.2598e-01	3.8111e+01
440	3.4356e-01	1.7059e-01	3.0462e-01	-1.0109e-01	-3.0039e+01
441	3.0785e-01	1.0746e-01	1.2870e-01	-6.3064e-02	6.2254e+02
442	2.4670e-01	9.9505e-02	1.0078e-01	-2.6453e-02	6.3098e+02
443	3.3268e-01	1.3454e-01	2.3329e-01	-2.5336e-02	4.9191e+02
444	4.3868e-01	1.3554e-01	4.2944e-01	-8.6000e-02	5.8005e+02
445	5.7131e-01	1.5057e-01	3.7559e-01	-1.1032e-01	2.4167e+02
446	5.4589e-01	1.1641e-01	2.9576e-01	-1.2488e-01	4.8906e+02
447	5.7955e-01	1.3447e-01	3.7623e-01	-1.1588e-01	2.9107e+02
448	3.2877e-02	-8.3126e-04	-6.8422e-02	4.7288e-02	2.1902e+03
449	1.6623e-02	2.9568e-02	3.6847e-02	-2.4547e-02	1.9873e+03
450	1.0911e-01	1.3790e-01	2.0094e-01	-1.1674e-01	6.1197e+02
451	7.0051e-02	1.6302e-01	1.5300e-01	1.7782e-02	3.5750e+02
452	5.7181e-02	-1.1934e-04	-3.3138e-02	5.1034e-02	2.0996e+03
453	4.1703e-02	1.4256e-01	1.1552e-01	1.7957e-02	6.0573e+02
454	3.7181e-02	1.0166e-01	8.4392e-02	-1.2451e-02	1.1360e+03
455	1.0637e-02	9.1072e-03	-3.9119e-02	4.5882e-02	2.1471e+03
456	7.9034e-02	1.4823e-01	1.7813e-01	-3.4703e-02	3.8437e+02
457	4.7790e-02	5.9618e-02	-2.1988e-02	3.1741e-02	1.6503e+03
458	7.2321e-02	4.2073e-02	-1.2596e-01	-6.5161e-03	1.7192e+03
459	1.7094e-02	2.0081e-02	-4.9405e-02	-5.1598e-02	2.1265e+03
460	1.5408e-01	1.5868e-01	2.8327e-01	-5.7794e-02	1.8048e+02
461	4.5865e-02	1.3460e-01	1.1253e-01	7.5474e-02	6.3579e+02
462	1.0447e-02	7.9105e-02	6.8080e-02	5.8170e-02	1.3288e+03
463	2.6501e-02	1.4463e-01	5.0978e-02	-2.9385e-02	5.7358e+02
464	2.0195e-01	1.3741e-01	2.2781e-01	-8.4010e-02	3.1269e+02
465	6.3485e-02	8.3047e-02	9.4000e-03	4.5415e-02	1.3165e+03
466	4.1471e-02	3.6089e-02	4.0677e-02	-1.0186e-01	1.9514e+03
467	1.0687e-01	1.1789e-01	1.0383e-01	-1.0495e-01	8.0991e+02
468	3.1568e-02	2.8499e-02	-1.2305e-01	1.0625e-02	2.0458e+03
469	4.5584e-02	7.4940e-02	-3.1490e-02	-1.5740e-02	1.5041e+03
470	5.1340e-02	9.4593e-02	6.5183e-03	1.9907e-02	1.2270e+03
471	1.7793e-01	1.3974e-01	2.9520e-01	-2.0315e-01	3.4365e+02
472	9.6520e-02	5.7400e-02	-3.6527e-02	-5.2835e-03	1.5538e+03
473	9.4139e-02	1.0309e-01	1.8865e-02	2.4941e-02	9.7319e+02
474	4.7259e-02	5.2505e-02	1.2950e-02	-6.5069e-02	1.7424e+03
475	4.0551e-02	1.2323e-01	6.3305e-03	1.1688e-01	8.6416e+02
476	1.3530e-01	1.4996e-01	2.3175e-01	-1.1706e-01	4.2605e+02
477	9.1656e-02	1.1725e-01	1.2189e-01	-1.6031e-04	8.5003e+02
478	7.3414e-02	1.1218e-01	-5.0716e-02	4.3125e-02	9.6855e+02
479	1.2284e-01	1.5793e-01	2.1212e-01	-1.3209e-02	4.3980e+02
480	1.5880e-01	1.0436e-01	8.8982e-02	-1.0730e-01	8.2636e+02
481	2.0224e-01	1.1717e-01	2.0279e-01	-7.3430e-02	5.6496e+02
482	1.4728e-01	6.3836e-02	1.0370e-02	5.3438e-03	1.1933e+03
483	8.9452e-02	6.7790e-02	-4.1489e-02	3.1075e-02	1.3840e+03
484	1.2295e-01	6.8633e-02	2.7476e-03	-3.5487e-02	1.3069e+03
485	1.1433e-01	8.9975e-02	-3.0129e-03	-7.7182e-02	1.0685e+03
486	1.7410e-01	8.7324e-02	1.3857e-02	2.4442e-02	9.2068e+02
487	2.2529e-01	5.7405e-02	6.3990e-02	-8.9315e-02	1.0730e+03
488	1.5305e-01	6.9823e-02	-1.9139e-02	-5.9249e-02	1.1621e+03
489	2.3394e-01	6.9977e-02	3.6163e-02	-6.6847e-02	9.3324e+02
490	2.1266e-01	4.3419e-02	-1.2322e-02	-7.8843e-02	1.2281e+03
491	1.6965e-01	1.0112e-01	-1.3242e-02	-4.3979e-02	7.0091e+02
492	2.0557e-01	1.4858e-01	2.4273e-01	1.1403e-02	3.8071e+02
493	1.8200e-01	1.2377e-01	2.1803e-01	-6.2465e-02	4.2356e+02
494	2.0138e-01	5.5927e-02	6.7065e-03	-7.8918e-02	1.1475e+03
495	2.8560e-01	1.4506e-01	2.3597e-01	-1.4456e-02	3.3375e+02
496	2.3088e-01	1.0541e-01	9.6378e-02	-1.0306e-01	6.3177e+02
497	1.9938e-01	8.4668e-02	6.7291e-02	-1.1567e-01	8.8671e+02
498	2.4979e-01	1.2660e-01	1.5141e-01	3.2449e-03	4.3017e+02
499	2.8791e-01	1.2126e-01	8.5254e-02	-1.1850e-01	5.0096e+02