variables="k","x","y","vx","vy","pressure"
zone i=8064 j=1
0	3.5549e-02	1.5231e-01	-5.6350e-03	1.9247e-02	-1.3577e+01
1	3.1912e-02	1.4742e-01	2.9478e-02	4.0330e-03	2.9308e+02
2	1.4112e-01	1.1191e-01	1.8472e-01	-4.8887e-02	4.2311e+02
3	2.4106e-01	1.0795e-01	1.8912e-01	-7.2717e-02	3.7482e+02
4	7.9389e-02	9.7677e-02	7.1884e-02	2.0135e-02	7.5166e+02
5	2.1385e-01	1.0646e-01	2.3079e-01	-9.5463e-02	3.7343e+02
6	2.6542e-01	1.4300e-01	2.3173e-01	-4.2392e-02	1.3976e+02
7	3.1591e-01	1.5380e-01	3.5207e-01	-1.4137e-01	2.8841e+01
8	-4.9679e-04	1.4296e-01	3.4107e-02	-8.0444e-02	0.0000e+00
9	2.0808e-01	1.5043e-01	3.9243e-01	-8.8841e-02	3.1252e+01
10	2.0506e-01	9.8692e-02	1.2978e-01	-5.1411e-02	3.8812e+02
11	1.4471e-01	1.4693e-01	2.7439e-01	-5.6364e-02	2.4889e+00
12	2.7184e-01	1.5148e-01	3.1965e-01	-8.7482e-02	5.7480e+01
13	4.7000e-01	1.5142e-01	3.9116e-01	-1.5600e-02	8.6983e+01
14	1.7238e-01	1.3141e-01	3.5403e-01	-9.6416e-02	2.6173e+02
15	2.8005e-01	1.4992e-01	3.3259e-01	-7.1300e-02	1.1090e+02
16	3.7222e-01	1.4531e-01	4.2737e-01	-6.6196e-02	1.4023e+02
17	4.4631e-01	1.2180e-01	3.3006e-01	-9.9470e-02	5.2262e+02
18	4.1147e-01	1.4506e-01	4.1140e-01	-6.4866e-02	1.0290e+02
19	4.8367e-02	1.5484e-01	8.7267e-02	-1.6117e-01	3.6662e+02
20	3.8539e-01	1.4684e-01	4.1282e-01	-6.8733e-02	1.1111e+02
21	2.5979e-02	1.5556e-01	8.8949e-02	-4.1421e-02	1.3773e+02
22	1.9695e-01	9.7397e-02	8.3725e-02	-9.3401e-02	4.7367e+02
23	2.8013e-01	1.3038e-01	2.4009e-01	-5.6293e-02	2.3001e+02
24	4.5171e-01	1.4456e-01	3.6958e-01	-8.2453e-02	2.9075e+02
25	-5.6094e-05	1.5872e-01	9.4188e-02	-1.0244e-01	0.0000e+00
26	1.4469e-01	7.2876e-02	4.4974e-02	-2.3218e-02	7.9738e+02
27	3.7470e-01	1.4714e-01	3.2926e-01	-4.3253e-02	1.0209e+02
28	5.3499e-01	1.5902e-01	4.6152e-01	-1.5174e-01	0.0000e+00
29	4.7064e-01	1.4728e-01	4.1311e-01	-4.4549e-02	2.1884e+02
30	-2.2569e-04	1.5530e-01	3.7177e-01	-1.3458e-01	0.0000e+00
31	2.4772e-01	7.2437e-02	3.8129e-02	-7.3804e-02	6.0752e+02
32	5.9934e-01	1.3590e-01	3.7703e-01	-5.7125e-02	2.6338e+02
33	5.1719e-01	1.0627e-01	2.4248e-01	-1.0472e-01	6.8163e+02
34	5.5178e-01	1.3509e-01	3.2669e-01	-1.3800e-01	1.7178e+02
35	5.3647e-01	1.2954e-01	3.3836e-01	-2.0225e-02	3.4983e+02
36	5.6210e-01	1.2331e-01	3.6973e-01	-3.0148e-02	3.2677e+02
37	4.6987e-01	1.3426e-01	3.2421e-01	-9.1936e-02	2.8839e+02
38	5.3254e-01	1.1564e-01	3.1697e-01	5.1329e-02	4.9033e+02
39	7.1745e-01	1.5295e-01	4.6690e-01	-1.1510e-01	6.9109e+02
40	6.7610e-01	1.4733e-01	4.5045e-01	-2.7668e-02	4.1448e+02
41	3.6661e-01	1.0841e-01	1.8097e-01	-8.1850e-02	5.1371e+02
42	3.0703e-01	8.4965e-02	1.2020e-01	-8.5565e-02	5.0933e+02
43	5.1878e-01	1.3267e-01	3.7891e-01	-1.6121e-01	3.2245e+02
44	4.9437e-01	1.3796e-01	3.7680e-01	4.8535e-02	2.8090e+02
45	5.8904e-01	1.4081e-01	4.1102e-01	-1.2864e-01	7.4274e+01
46	3.7213e-01	1.1366e-01	3.2461e-01	-1.1780e-01	4.6968e+02
47	6.0318e-01	1.4935e-01	4.0737e-01	-5.7391e-02	5.5878e+01
48	5.9561e-01	1.5112e-01	3.4829e-01	-7.0182e-02	2.1707e+01
49	7.7748e-01	1.5399e-01	4.2428e-01	4.8202e-02	0.0000e+00
50	8.0032e-01	1.5340e-01	4.7521e-01	-7.0056e-02	3.8871e+01
51	5.2995e-01	1.4489e-01	3.0266e-01	-6.4334e-02	3.5355e+02
52	3.5769e-01	9.3559e-02	2.0966e-01	-8.6666e-02	6.1847e+02
53	8.1264e-01	1.5477e-01	4.9184e-01	-8.1226e-02	-4.2400e+00
54	5.5594e-01	1.1713e-01	3.3595e-01	-1.6979e-02	4.2814e+02
55	6.2167e-01	1.2047e-01	4.1016e-01	-7.6627e-02	4.4051e+02
56	3.3513e-01	7.9182e-02	1.0747e-01	-1.1620e-01	6.0549e+02
57	6.8303e-01	1.2825e-01	3.6251e-01	-3.8851e-02	5.8353e+02
58	7.5114e-01	1.6194e-01	3.6424e-01	2.3351e-01	0.0000e+00
59	3.2095e-01	9.9762e-02	5.9427e-02	-7.2290e-02	5.1686e+02
60	7.9330e-01	1.3176e-01	4.8339e-01	-5.2278e-02	5.6696e+02
61	4.1510e-01	1.0548e-01	1.8827e-01	-7.7654e-02	6.5122e+02
62	7.6075e-01	1.3870e-01	4.9363e-01	-1.5058e-01	7.4394e+02
63	7.9921e-01	1.1583e-01	4.0374e-01	-9.9769e-02	4.6793e+02
64	1.7854e-02	-1.5558e-03	2.5186e-02	8.9152e-03	1.7285e+03
65	-1.1662e-03	3.3838e-02	-1.1166e-01	1.7665e-02	1.4676e+03
66	5.2020e-03	-8.2305e-04	-2.8860e-02	1.6547e-01	1.8264e+03
67	1.5838e-01	1.4047e-01	2.4630e-01	-1.1881e-02	1.6667e+02
68	4.9622e-02	1.4197e-01	7.8668e-02	-1.1915e-02	4.8162e+02
69	1.9024e-01	9.6467e-02	6.3013e-02	-8.0203e-02	5.1948e+02
70	2.3772e-01	1.5013e-01	3.5053e-01	6.9975e-03	1.2093e+02
71	1.7740e-01	1.0583e-01	1.9152e-01	4.1288e-02	3.9464e+02
72	2.6770e-01	1.5419e-01	3.2926e-01	-7.9833e-02	0.0000e+00
73	1.4895e-02	1.5560e-01	3.4178e-03	-1.0232e-01	1.3315e+02
74	2.6790e-01	1.3172e-01	2.7328e-01	-8.1180e-02	2.2456e+02
75	2.2557e-01	1.4946e-01	4.0908e-01	-3.9019e-02	6.7381e+01
76	2.1625e-01	1.3734e-01	3.8742e-01	-8.6172e-02	1.4569e+02
77	2.4434e-01	1.5447e-01	2.9141e-01	1.5687e-04	-5.3117e+01
78	3.2949e-01	1.5363e-01	3.8716e-01	-1.6003e-01	4.3805e+01
79	2.7297e-01	1.5202e-01	3.1769e-01	-8.2632e-02	5.5214e+01
80	8.6964e-02	1.5019e-01	1.2844e-01	-6.6553e-02	1.0673e+02
81	2.2001e-01	1.2822e-01	2.1146e-01	-5.8044e-02	1.5081e+02
82	2.9174e-01	1.5244e-01	3.2128e-01	-1.7738e-02	8.2383e+01
83	3.9829e-01	1.2860e-01	3.5036e-01	-1.0462e-01	3.6047e+02
84	3.3054e-01	1.2728e-01	3.0083e-01	-1.4335e-01	3.4240e+02
85	4.8055e-01	1.3513e-01	3.6314e-01	-2.4937e-02	3.0378e+02
86	5.4134e-01	1.3058e-01	3.4164e-01	-1.2109e-01	3.1006e+02
87	2.4862e-01	1.0996e-01	2.2117e-01	-4.0076e-02	4.0658e+02
88	4.1153e-01	1.4088e-01	3.4160e-01	-1.5808e-02	1.9879e+02
89	4.9295e-01	1.5001e-01	4.2801e-01	-3.0766e-02	1.8098e+02
90	5.8451e-01	1.2363e-01	3.9639e-01	-1.4851e-01	3.4388e+02
91	2.4940e-01	1.2554e-01	2.6408e-01	-9.7695e-03	2.2280e+02
92	4.2714e-01	1.4791e-01	4.5388e-01	-9.4972e-02	0.0000e+00
93	4.6965e-01	1.3003e-01	3.1291e-01	2.3106e-02	4.2155e+02
94	3.6737e-01	1.4742e-01	3.4952e-01	-6.1472e-02	6.8155e+01
95	1.6504e-01	3.0076e-02	1.8893e-02	-2.8690e-02	1.1528e+03
96	5.3238e-01	1.5980e-01	3.4586e-01	-8.5837e-02	0.0000e+00
97	5.1666e-01	1.5445e-01	3.5801e-01	-1.0248e-01	6.8090e+01
98	4.4316e-01	1.3085e-01	3.2397e-01	-2.3608e-03	2.5072e+02
99	5.6478e-01	1.5168e-01	4.5298e-01	-6.8843e-02	-1.3061e+01
100	5.4570e-01	1.5568e-01	4.2493e-01	-9.9466e-02	0.0000e+00
101	2.9635e-01	9.8482e-02	7.8871e-02	-7.1135e-02	4.6543e+02
102	5.6679e-01	1.5274e-01	3.6358e-01	-4.3550e-02	-3.2898e+01
103	6.0075e-01	1.5224e-01	4.0878e-01	-6.9592e-02	6.0697e+01
104	5.4171e-01	1.4522e-01	4.9112e-01	-4.2974e-02	1.6754e+02
105	6.5397e-01	1.5168e-01	4.1360e-01	-5.1632e-02	1.5811e+02
106	5.2934e-01	9.4476e-02	2.9781e-01	-8.8446e-02	7.1962e+02
107	6.0441e-01	1.1107e-01	3.3119e-01	-8.5441e-02	5.0840e+02
108	6.1529e-01	1.3628e-01	3.7558e-01	-8.3130e-02	2.6110e+02
109	5.5014e-01	1.4184e-01	3.2374e-01	-1.5173e-01	1.0447e+02
110	5.5315e-01	1.2643e-01	3.5488e-01	-1.3476e-01	3.6649e+02
111	6.4106e-01	1.2083e-01	3.4941e-01	-7.5424e-02	5.3333e+02
112	6.4146e-01	1.4015e-01	3.5187e-01	-5.4283e-02	2.7669e+02
113	5.0444e-01	7.9258e-02	1.4645e-01	-7.4605e-02	9.9680e+02
114	6.8998e-01	1.5227e-01	4.1297e-01	-4.2454e-02	2.8039e+02
115	5.3022e-01	9.7075e-02	2.4054e-01	-3.7453e-03	6.8309e+02
116	6.1682e-01	1.4053e-01	3.8221e-01	-2.4536e-02	2.2267e+02
117	6.6832e-01	1.3121e-01	3.5469e-01	-5.1241e-02	5.2881e+02
118	7.8260e-01	1.5302e-01	4.5434e-01	-2.2308e-02	2.3652e+02
119	7.7302e-01	1.5552e-01	5.8265e-01	-1.3562e-01	0.0000e+00
120	7.2819e-01	1.3385e-01	6.0653e-01	-9.9912e-02	-1.9180e+03
121	6.8326e-01	1.5132e-01	4.1254e-01	-3.9395e-02	3.2626e+02
122	7.3302e-01	1.5186e-01	4.1787e-01	-4.4208e-02	0.0000e+00
123	6.4658e-01	1.5257e-01	4.4253e-01	-8.6014e-02	0.0000e+00
124	4.0827e-01	9.0424e-02	1.7206e-01	-1.0058e-01	8.3165e+02
125	8.1676e-01	1.5532e-01	4.8174e-01	-8.1727e-02	1.3693e-01
126	5.9773e-01	9.7451e-02	2.6165e-01	-4.4478e-02	6.1371e+02
127	4.7446e-01	6.7669e-02	1.5929e-01	-7.1194e-02	1.1827e+03
128	7.5547e-02	1.2577e-01	1.3239e-01	-2.4796e-02	4.2673e+02
129	-2.9444e-04	1.2113e-01	1.0750e-01	-9.9487e-02	8.6949e+02
130	1.8282e-01	1.2973e-01	2.6934e-01	1.4803e-02	2.1062e+02
131	1.5278e-02	1.2345e-01	-3.3919e-02	-6.4145e-02	4.7960e+02
132	1.4928e-02	9.3980e-02	-6.4762e-02	2.6455e-02	7.5492e+02
133	1.5998e-01	1.0063e-01	1.9690e-01	-5.6833e-02	5.4000e+02
134	2.2677e-01	1.4998e-01	3.0367e-01	-2.4395e-02	1.5775e+01
135	9.4987e-02	1.3677e-01	1.6424e-01	-2.7014e-02	3.0806e+02
136	1.9901e-01	1.1011e-01	2.1549e-01	-1.0645e-01	3.5471e+02
137	2.5164e-01	1.5583e-01	3.6130e-01	-1.1428e-01	0.0000e+00
138	2.5716e-01	1.5899e-01	2.5327e-01	-9.2074e-02	0.0000e+00
139	1.3357e-01	1.4904e-01	3.1303e-01	-1.3445e-01	5.2592e+01
140	1.4716e-01	1.3930e-01	2.4984e-01	-7.5218e-02	2.4212e+02
141	1.9327e-01	1.5126e-01	2.6904e-01	-8.8315e-02	8.0755e+01
142	2.2591e-01	1.4593e-01	3.1508e-01	-5.9163e-02	1.3408e+02
143	2.1664e-01	1.2041e-01	1.9636e-01	-9.0268e-02	2.5599e+02
144	1.9319e-01	1.5021e-01	3.5526e-01	-4.4407e-02	-2.0939e+01
145	1.3772e-01	1.0690e-01	8.3621e-02	-2.0603e-02	4.7371e+02
146	4.6155e-01	1.4930e-01	4.0863e-01	-4.4516e-02	1.1213e+02
147	2.7869e-01	7.2803e-02	5.8418e-02	-8.7880e-02	6.1179e+02
148	5.5793e-01	1.4573e-01	3.7315e-01	-1.0320e-01	3.1317e+01
149	1.7092e-01	1.3840e-01	2.9703e-01	-3.6826e-02	1.9274e+02
150	3.6161e-01	1.1036e-01	2.4316e-01	-1.2483e-01	4.8037e+02
151	2.7444e-01	1.0732e-01	2.2980e-01	-7.4395e-02	4.2266e+02
152	4.3975e-01	1.2614e-01	3.4956e-01	-1.4196e-01	4.5072e+02
153	3.4192e-01	1.4834e-01	3.5806e-01	-1.6148e-01	6.8187e+01
154	2.9950e-01	1.5676e-01	3.2369e-01	-1.0399e-01	0.0000e+00
155	4.3965e-01	1.4775e-01	3.8938e-01	-6.4118e-03	1.7599e+02
156	3.5438e-01	1.4972e-01	3.6819e-01	-1.3446e-01	7.4703e+01
157	4.2977e-01	1.0646e-01	1.7195e-01	3.3871e-02	6.7165e+02
158	4.7806e-01	1.5009e-01	4.5390e-01	5.0318e-03	1.6904e+02
159	1.4824e-01	9.0465e-02	5.0689e-02	-4.9316e-02	6.4636e+02
160	3.3706e-01	1.1707e-01	3.2598e-01	-9.1341e-02	3.6987e+02
161	5.8157e-01	1.3442e-01	3.5793e-01	-8.6807e-02	2.3047e+02
162	5.5381e-01	1.5385e-01	3.9879e-01	-1.0186e-01	1.9862e+02
163	2.9774e-01	1.2413e-01	1.8587e-01	-5.2472e-02	3.0373e+02
164	2.5160e-01	1.5770e-01	3.2673e-01	-6.2976e-02	0.0000e+00
165	6.3585e-01	1.5240e-01	3.9028e-01	-4.8354e-02	0.0000e+00
166	6.9098e-01	1.5254e-01	4.3057e-01	-4.4541e-02	2.6503e+02
167	6.3158e-01	1.5265e-01	4.5639e-01	-5.1060e-02	0.0000e+00
168	5.0290e-01	9.7743e-02	2.6433e-01	-2.6563e-02	8.2168e+02
169	6.1703e-01	1.5201e-01	4.2918e-01	-5.1406e-02	6.0245e+01
170	6.5593e-01	1.5278e-01	4.5244e-01	-7.0635e-02	2.3539e+02
171	3.9690e-01	1.4588e-01	4.0505e-01	-1.3589e-01	0.0000e+00
172	5.2896e-01	1.5559e-01	4.2492e-01	-1.6219e-01	3.0442e+01
173	3.1787e-01	1.1830e-01	1.8282e-01	-6.6470e-02	2.9348e+02
174	7.1742e-01	1.5244e-01	4.7672e-01	-1.2135e-01	7.2821e+02
175	7.0804e-01	1.4126e-01	4.6739e-01	-1.1244e-01	7.1652e+02
176	7.4176e-01	1.2358e-01	3.9752e-01	1.0200e-01	-3.4399e+03
177	5.7090e-01	1.3792e-01	3.8218e-01	-5.2590e-02	2.8398e+02
178	6.5025e-01	1.4980e-01	4.6396e-01	-8.3953e-02	1.5049e+02
179	5.4941e-01	9.7393e-02	2.9735e-01	-8.1850e-02	6.7190e+02
180	5.7709e-01	1.4715e-01	3.7072e-01	-6.6412e-02	7.7343e+01
181	4.2409e-01	1.2345e-01	3.3267e-01	-3.5048e-02	4.3841e+02
182	5.6733e-01	1.3854e-01	4.0462e-01	4.1587e-03	2.7613e+02
183	7.2654e-01	1.5534e-01	4.8979e-01	-4.3636e-02	-3.4127e+01
184	6.3138e-01	1.4301e-01	3.5855e-01	-1.0684e-02	2.8996e+02
185	7.7011e-01	1.5288e-01	4.7422e-01	-1.9633e-01	3.3266e+01
186	7.1138e-01	1.5129e-01	4.1611e-01	-1.3205e-01	7.7490e+02
187	6.1420e-01	1.0356e-01	3.3484e-01	-1.3329e-01	6.2108e+02
188	6.9395e-01	1.3923e-01	3.9342e-01	-5.6405e-02	5.6278e+02
189	6.3470e-01	1.1983e-01	3.6389e-01	-5.6000e-02	5.0204e+02
190	3.7127e-01	7.4724e-02	1.2653e-01	-1.1365e-01	8.3495e+02
191	4.6353e-01	7.3021e-02	2.0212e-01	-2.4089e-02	1.0592e+03
192	1.0640e-01	1.5203e-01	2.9075e-01	1.2279e-02	-1.5883e+02
193	4.5627e-02	1.1113e-01	9.2374e-02	3.4880e-02	6.3112e+02
194	1.3274e-02	1.4167e-01	5.9823e-02	-3.4895e-02	4.6763e+02
195	2.3390e-01	1.2416e-01	1.9671e-01	-9.7083e-02	2.4761e+02
196	-4.6799e-04	1.0894e-01	2.1418e-01	-6.5245e-02	8.8366e+02
197	2.7948e-02	1.5160e-01	1.0083e-01	-1.4223e-02	1.6961e+02
198	1.1579e-01	1.4384e-01	1.5337e-01	-4.0256e-02	3.6088e+02
199	3.1183e-01	1.4122e-01	3.1194e-01	-1.0310e-01	2.0805e+02
200	7.8315e-02	1.4825e-01	1.3977e-01	-3.8538e-02	1.6898e+02
201	1.0267e-01	1.0959e-01	1.3099e-01	-6.5523e-03	5.4594e+02
202	2.5443e-01	1.3603e-01	2.6662e-01	-7.6243e-02	2.0419e+02
203	2.4799e-02	5.2833e-02	-9.0399e-02	2.4814e-02	1.3859e+03
204	1.4874e-01	1.2166e-01	2.7450e-01	-1.4727e-01	4.4557e+02
205	1.0285e-01	1.3865e-01	2.0770e-01	-6.1768e-02	4.8396e+02
206	1.7677e-01	1.5434e-01	3.1714e-01	-4.2676e-02	0.0000e+00
207	2.5966e-01	1.1058e-01	2.0893e-01	-1.0521e-01	3.3151e+02
208	3.0494e-01	1.5609e-01	2.8268e-01	-1.0437e-01	0.0000e+00
209	7.3648e-02	1.4552e-01	1.5972e-01	-2.7708e-02	1.4425e+02
210	3.9462e-01	1.4570e-01	3.7262e-01	-1.3813e-01	0.0000e+00
211	1.6699e-01	1.5201e-01	3.0029e-01	-5.7984e-02	4.1588e+01
212	1.9576e-01	1.3035e-01	2.9948e-01	-7.5156e-02	2.1639e+02
213	6.0082e-02	1.5309e-01	1.5720e-01	-4.0548e-02	0.0000e+00
214	3.6228e-01	1.4452e-01	4.3122e-01	-1.1756e-01	1.4062e+02
215	3.5170e-01	1.1341e-01	2.9446e-01	-1.2694e-01	3.8940e+02
216	2.5478e-01	1.5345e-01	3.1077e-01	-8.8835e-02	2.3276e+02
217	2.1811e-01	6.7771e-02	1.4486e-02	-1.0524e-01	6.0116e+02
218	4.5772e-01	1.2770e-01	3.6275e-01	-8.2793e-02	3.7152e+02
219	2.3738e-01	1.3944e-01	2.9824e-01	-1.0882e-01	1.7139e+02
220	2.0760e-01	1.5113e-01	3.5296e-01	-8.2135e-02	2.5820e+01
221	4.0147e-01	1.4316e-01	3.2985e-01	-9.0692e-02	2.1112e+02
222	1.8491e-01	6.6868e-02	-4.2633e-02	-4.5790e-02	7.6423e+02
223	1.0331e-01	1.5334e-01	1.7873e-01	-1.4196e-01	0.0000e+00
224	3.6690e-01	1.3149e-01	2.4139e-01	-1.0579e-01	2.0487e+02
225	5.1258e-01	1.5697e-01	4.0041e-01	-7.5835e-02	2.9842e+01
226	2.3700e-01	8.2141e-02	7.8934e-02	-4.2417e-02	5.7183e+02
227	4.8975e-01	1.3270e-01	3.2266e-01	-8.7553e-02	3.4308e+02
228	4.7688e-01	8.0964e-02	2.2938e-01	-1.4878e-01	9.6155e+02
229	6.2621e-01	1.5192e-01	4.1564e-01	-3.3855e-02	1.0200e+01
230	2.7418e-01	1.2057e-01	1.6625e-01	-9.9994e-02	3.0863e+02
231	3.0236e-01	1.0670e-01	2.0513e-01	-5.9447e-02	3.9971e+02
232	5.8456e-01	1.4912e-01	4.1492e-01	-8.3693e-02	5.7759e+01
233	3.6632e-01	9.2263e-02	1.5691e-01	-1.0640e-01	7.1809e+02
234	4.5747e-01	1.3682e-01	3.1479e-01	-1.7139e-02	2.0657e+02
235	5.0054e-01	1.1149e-01	2.4151e-01	-1.9154e-02	6.6523e+02
236	5.9384e-01	1.2870e-01	3.4102e-01	-2.5864e-02	2.6633e+02
237	3.3523e-01	1.1494e-01	1.4832e-01	-6.4176e-02	3.6415e+02
238	2.4791e-01	4.6428e-02	3.9923e-02	-9.0973e-02	8.4385e+02
239	4.9034e-01	9.4297e-02	2.4496e-01	-3.7550e-02	8.1522e+02
240	6.6841e-01	1.4662e-01	4.1699e-01	-5.3252e-02	4.4598e+02
241	6.9302e-01	1.5265e-01	4.2411e-01	-4.9005e-02	2.7694e+02
242	5.6172e-01	8.5560e-02	3.1843e-01	-1.0439e-01	7.0211e+02
243	4.8607e-01	1.0836e-01	3.0197e-01	1.5770e-02	6.3900e+02
244	2.6792e-01	1.3154e-01	2.4046e-01	-7.9119e-02	2.2797e+02
245	3.9486e-01	1.2447e-01	2.7734e-01	-8.8001e-02	4.1461e+02
246	3.2465e-01	8.6623e-02	1.3298e-01	-6.1334e-02	6.0154e+02
247	4.1582e-01	8.7458e-02	1.8694e-01	-6.2990e-02	8.3362e+02
248	5.7321e-01	1.2559e-01	3.8877e-01	-4.8011e-03	2.9866e+02
249	3.2235e-01	8.0033e-02	1.1943e-01	-9.9883e-02	6.7520e+02
250	2.8540e-01	1.1075e-01	2.0219e-01	-4.3520e-02	3.3627e+02
251	4.5486e-01	9.9021e-02	2.5871e-01	-6.8143e-02	7.5080e+02
252	4.8452e-01	1.0416e-01	1.7185e-01	1.5070e-02	6.9820e+02
253	2.2755e-01	7.7396e-02	7.0622e-02	-1.2411e-01	6.1087e+02
254	5.3175e-01	1.3761e-01	3.3653e-01	-6.9721e-02	2.9852e+02
255	8.3220e-01	1.5706e-01	5.3821e-01	-3.6414e-02	1.1024e+02
256	1.5885e-01	1.4844e-01	3.2980e-01	-7.7632e-02	9.4782e+01
257	9.3128e-03	6.3395e-02	-5.8854e-02	6.3969e-02	1.1766e+03
258	9.4198e-05	1.7074e-02	6.2501e-02	3.9132e-02	1.8320e+03
259	2.3023e-01	1.2877e-01	2.2490e-01	-7.0421e-02	2.1458e+02
260	9.3063e-02	1.2814e-01	1.3116e-01	-1.2487e-01	3.2463e+02
261	3.1712e-02	1.1034e-01	7.4265e-03	2.2523e-02	6.1990e+02
262	1.0093e-02	7.0162e-02	1.1915e-02	-7.1017e-03	1.1817e+03
263	1.8400e-01	1.1397e-01	2.3996e-01	-4.4658e-02	3.5141e+02
264	6.4978e-02	1.2190e-01	1.0116e-01	1.5613e-02	5.0938e+02
265	4.8365e-02	1.2378e-01	3.6770e-02	6.0569e-02	3.7986e+02
266	2.0375e-01	8.7393e-02	1.0107e-01	-4.0559e-02	5.5344e+02
267	7.7282e-02	2.5893e-02	-3.4573e-03	1.1029e-02	1.4930e+03
268	1.4006e-01	1.4849e-01	2.4219e-01	-7.5063e-02	1.4822e+01
269	1.5357e-01	1.4983e-01	2.4661e-01	-8.1823e-02	6.6432e+01
270	1.1773e-01	8.6673e-02	4.4201e-02	5.6006e-03	7.2450e+02
271	1.7562e-01	1.2091e-01	2.0498e-01	-1.1772e-02	3.1878e+02
272	1.0246e-01	1.2102e-01	1.7731e-01	-7.4245e-02	4.2916e+02
273	5.6487e-02	5.7934e-02	-2.5830e-03	1.2689e-02	1.2407e+03
274	2.9712e-01	1.4121e-01	3.6032e-01	-5.0167e-02	1.1443e+02
275	2.7070e-01	1.1232e-01	2.4796e-01	-5.1708e-02	3.6601e+02
276	2.6281e-01	9.4174e-02	2.1421e-01	-5.0121e-02	3.9798e+02
277	4.2878e-01	1.4749e-01	3.7983e-01	-9.8799e-02	0.0000e+00
278	3.5004e-01	1.0297e-01	1.6238e-01	-1.0356e-01	5.0055e+02
279	3.3611e-01	1.5002e-01	3.3757e-01	-1.5795e-01	8.3671e+01
280	4.3526e-01	1.3009e-01	3.9484e-01	-9.2890e-02	3.2982e+02
281	1.9265e-02	1.5468e-01	2.5960e-02	-8.7682e-02	1.3564e+02
282	4.5614e-01	1.4682e-01	3.7051e-01	-6.8454e-02	1.8859e+02
283	3.3956e-01	1.0737e-01	1.5776e-01	-1.5015e-01	4.4766e+02
284	2.4063e-01	9.4057e-02	1.4509e-01	-7.2806e-02	4.3750e+02
285	3.2950e-01	1.3995e-01	3.1232e-01	-1.1852e-01	1.9637e+02
286	1.5888e-01	9.8815e-02	6.4405e-02	8.4859e-02	4.8582e+02
287	2.0031e-01	1.3843e-01	2.6576e-01	-4.5720e-02	2.1360e+02
288	3.1956e-01	1.2126e-01	2.1381e-01	-8.3479e-02	2.5906e+02
289	8.6630e-02	8.9238e-02	-6.9440e-02	1.4964e-04	8.2657e+02
290	3.5490e-01	1.2349e-01	3.1948e-01	-2.1067e-01	3.4489e+02
291	1.3048e-01	1.2415e-01	2.0038e-01	-5.0011e-02	3.9773e+02
292	4.8614e-01	1.2547e-01	3.0398e-01	-5.3128e-02	5.3146e+02
293	3.7295e-01	1.2772e-01	2.8424e-01	-9.5826e-02	2.4353e+02
294	2.7673e-01	8.8462e-02	1.5226e-01	-1.2881e-01	5.3011e+02
295	2.2287e-01	9.6413e-02	1.6227e-01	-1.9496e-02	4.8877e+02
296	3.0917e-01	1.2104e-01	2.0406e-01	-5.1028e-02	3.0525e+02
297	3.0987e-01	1.5595e-01	2.9930e-01	-1.0574e-01	1.2915e+02
298	4.7965e-01	1.5088e-01	3.0295e-01	-6.2160e-02	0.0000e+00
299	1.4553e-01	8.5740e-02	1.3169e-01	5.6009e-02	7.0155e+02
300	1.9082e-01	5.2838e-02	-1.4876e-02	-5.6103e-02	7.8252e+02
301	4.8582e-01	1.5263e-01	3.2306e-01	2.8447e-03	1.4199e+02
302	6.0482e-01	1.3266e-01	4.2477e-01	-6.0263e-02	3.2344e+02
303	2.8928e-01	1.1582e-01	1.9983e-01	-2.4343e-02	2.9354e+02
304	5.2173e-01	1.2043e-01	3.0001e-01	-1.0841e-01	4.8654e+02
305	6.2033e-01	1.2877e-01	3.2850e-01	-2.1711e-02	3.3131e+02
306	4.9863e-01	1.5563e-01	3.0333e-01	-4.3215e-02	8.9801e+01
307	6.5911e-01	1.3877e-01	3.9961e-01	-3.5220e-02	3.8753e+02
308	4.6919e-01	1.0287e-01	2.8876e-01	-1.0468e-01	8.0185e+02
309	5.8370e-01	1.1633e-01	3.1162e-01	-6.0560e-02	3.8879e+02
310	5.4803e-01	1.1714e-01	3.3813e-01	-1.3069e-01	3.7087e+02
311	5.2569e-01	1.2489e-01	3.2347e-01	-4.4702e-02	4.6075e+02
312	3.4279e-01	1.2795e-01	2.6040e-01	-1.4330e-01	2.6889e+02
313	3.3473e-01	9.2739e-02	1.2112e-01	-9.6886e-02	5.8037e+02
314	7.3898e-01	1.5021e-01	4.2862e-01	-3.3725e-01	1.3634e+03
315	7.3441e-01	1.5219e-01	4.5931e-01	-1.0848e-01	3.7632e+02
316	5.1616e-01	1.5230e-01	3.6586e-01	-9.8291e-02	1.2824e+02
317	5.9123e-01	1.4944e-01	4.3673e-01	-7.3911e-02	6.2406e+01
318	7.6979e-01	1.2553e-01	4.8807e-01	-1.5557e-01	2.2353e+02
319	7.6554e-01	1.5715e-01	6.1010e-01	-7.0136e-02	0.0000e+00
320	2.6258e-02	5.7945e-02	1.9392e-02	3.0687e-02	1.2859e+03
321	2.2554e-02	1.3171e-01	5.9453e-02	2.4233e-02	3.3276e+02
322	3.5850e-02	3.9079e-02	-7.7151e-02	3.0540e-02	1.5535e+03
323	1.0990e-01	1.2619e-01	1.8512e-01	2.1859e-02	3.5076e+02
324	1.2497e-01	1.3504e-04	3.8384e-02	-1.1167e-01	1.2901e+03
325	5.9172e-02	1.6085e-01	2.0014e-01	-1.2260e-01	0.0000e+00
326	1.3667e-01	1.3741e-01	1.9634e-01	-1.0463e-01	2.8127e+02
327	2.5225e-01	1.3315e-01	2.8837e-01	-6.0739e-02	2.2806e+02
328	7.5478e-02	1.4830e-01	1.3342e-01	-3.9144e-02	1.5418e+02
329	3.7815e-02	1.0421e-01	1.2594e-01	3.2457e-02	6.6096e+02
330	1.0813e-01	1.5363e-01	1.6630e-01	-9.9765e-02	1.9465e+02
331	8.9830e-02	8.1042e-02	5.1379e-02	8.9344e-03	8.4998e+02
332	2.0325e-01	1.1435e-01	1.8785e-01	-2.3516e-02	3.6825e+02
333	7.1486e-03	1.3367e-01	4.4814e-03	4.7518e-02	6.1081e+02
334	4.5890e-02	1.1408e-01	5.5163e-02	8.4877e-02	6.1404e+02
335	1.4557e-01	1.2994e-01	2.4077e-01	-1.0348e-01	3.4167e+02
336	1.7442e-01	1.5349e-01	3.3401e-01	-3.0843e-02	5.5895e+01
337	1.9056e-01	1.2419e-01	2.9908e-01	-5.1469e-02	1.9274e+02
338	7.9836e-02	1.3002e-01	1.1127e-01	7.8295e-02	4.2210e+02
339	7.9943e-02	5.9448e-02	-2.4375e-02	6.2465e-02	1.1421e+03
340	2.6167e-01	1.2010e-01	2.0103e-01	-9.7693e-02	2.6502e+02
341	1.9821e-01	1.5024e-01	3.0652e-01	-9.1091e-02	5.0975e+01
342	2.8649e-01	1.5027e-01	3.1029e-01	-3.8689e-02	9.8973e+01
343	4.3902e-01	1.4678e-01	3.7027e-01	-1.2107e-02	2.3940e+02
344	3.2081e-01	1.4605e-01	2.1935e-01	-6.1658e-02	6.9933e+01
345	3.5855e-01	1.2415e-01	2.7242e-01	-3.7701e-02	4.2107e+02
346	4.9933e-01	1.5135e-01	4.0341e-01	-3.2079e-02	1.3236e+02
347	3.2033e-01	1.3297e-01	3.0661e-01	-9.6143e-02	2.2093e+02
348	9.0437e-02	1.1827e-01	7.1739e-02	-4.3612e-02	4.9429e+02
349	1.9354e-01	1.1222e-01	1.8906e-01	-7.8632e-02	3.6576e+02
350	7.9272e-02	8.2790e-02	3.4745e-02	-4.9281e-03	8.9171e+02
351	2.2500e-01	1.0892e-01	2.1615e-01	-3.7755e-02	3.6452e+02
352	2.9802e-01	1.5571e-01	3.4028e-01	-4.9642e-02	0.0000e+00
353	3.0150e-01	1.2626e-01	2.1765e-01	-8.1433e-02	2.5293e+02
354	2.9747e-01	1.3555e-01	2.1721e-01	-9.6674e-02	1.3252e+02
355	1.3339e-01	1.0117e-01	4.1198e-02	-1.0315e-01	5.3453e+02
356	1.5951e-01	8.1465e-02	6.4515e-02	-6.6315e-02	6.6625e+02
357	2.9310e-02	9.8230e-02	-1.8732e-02	4.8378e-02	8.1161e+02
358	2.7317e-01	9.9260e-02	1.9061e-01	-1.1402e-01	4.4347e+02
359	2.3523e-01	6.6456e-02	-1.1183e-02	-1.1396e-01	6.5909e+02
360	2.8131e-01	9.6866e-02	1.0320e-01	-5.1045e-02	4.4456e+02
361	5.4304e-01	1.1433e-01	2.8615e-01	-1.3762e-01	4.3245e+02
362	2.1621e-01	9.5211e-02	9.9679e-02	-8.8167e-02	4.5615e+02
363	3.1906e-01	1.0877e-01	1.4809e-01	-1.0087e-01	4.0279e+02
364	2.3474e-01	9.2642e-02	1.0430e-01	-1.6784e-02	4.3833e+02
365	3.8298e-01	1.0667e-01	2.6627e-01	-1.1525e-01	5.9838e+02
366	3.5261e-01	1.4802e-01	3.5806e-01	-1.5905e-01	1.4288e+02
367	1.9881e-01	7.2931e-02	7.2322e-02	-5.0618e-02	6.6666e+02
368	2.9877e-01	8.5797e-02	8.3030e-02	-4.3283e-02	5.7451e+02
369	2.8939e-01	9.5458e-02	2.1371e-01	-3.4767e-02	4.8409e+02
370	3.7340e-01	9.4765e-02	1.3096e-01	-7.6868e-02	6.1998e+02
371	5.3882e-01	1.0377e-01	2.3122e-01	-4.8482e-02	6.7829e+02
372	3.5587e-01	1.3397e-01	3.2082e-01	-1.0508e-01	2.1858e+02
373	6.2896e-01	1.3432e-01	4.2670e-01	-3.4719e-02	3.1800e+02
374	3.0832e-01	1.0793e-01	1.9492e-01	-8.1972e-02	4.4975e+02
375	7.0992e-01	1.5201e-01	4.4812e-01	-1.1113e-01	7.5100e+02
376	8.2574e-01	1.5353e-01	5.3876e-01	-7.3661e-02	1.4364e+02
377	5.2552e-01	1.5543e-01	3.3678e-01	-1.7866e-01	0.0000e+00
378	5.0765e-01	1.4237e-01	3.5621e-01	-1.2673e-01	2.5270e+02
379	5.0531e-01	9.8302e-02	1.8042e-01	-8.8433e-02	7.9555e+02
380	4.7031e-01	1.1866e-01	3.1403e-01	-9.6239e-02	5.5728e+02
381	3.9777e-01	1.1821e-01	2.8674e-01	-6.1720e-02	4.7728e+02
382	7.4915e-01	1.4729e-01	3.1211e-01	-6.1391e-01	2.5822e+03
383	7.1977e-01	1.3681e-01	5.4354e-01	-7.8561e-02	-2.3503e+02
384	1.2298e-01	1.2275e-01	1.5668e-01	-9.2442e-02	3.0545e+02
385	1.9685e-02	1.4631e-02	-7.4184e-02	5.8501e-02	1.7500e+03
386	-7.0971e-06	9.9830e-02	2.0658e-02	-1.6946e-01	9.7869e+02
387	1.1818e-01	1.3583e-01	1.6528e-01	-6.0464e-02	3.3398e+02
388	2.3627e-02	1.3350e-01	8.5285e-02	-1.3134e-01	4.6648e+02
389	1.2143e-01	9.3894e-02	1.2586e-01	-5.2283e-02	6.9930e+02
390	3.8368e-02	7.9611e-02	8.0517e-02	6.0963e-02	9.9481e+02
391	3.4599e-01	1.5038e-01	4.1326e-01	-1.6485e-01	7.8470e+01
392	6.6014e-02	1.3915e-01	1.1030e-01	-9.0188e-02	2.5839e+02
393	8.4890e-02	1.1222e-01	4.1722e-02	2.0720e-02	5.8315e+02
394	1.6696e-02	9.0989e-02	2.3356e-01	5.1051e-02	8.4951e+02
395	1.1899e-01	1.5264e-01	2.1873e-01	-1.3384e-01	0.0000e+00
396	7.4092e-02	1.0242e-01	6.4895e-02	6.7733e-02	6.4538e+02
397	6.6456e-02	3.0405e-02	-4.1512e-02	1.0087e-02	1.4605e+03
398	8.8916e-02	1.5003e-01	1.3151e-01	-7.8971e-02	1.0022e+02
399	1.0994e-01	3.5173e-02	-5.1206e-02	-3.7873e-02	1.2766e+03
400	4.2182e-02	7.4411e-02	3.4115e-02	-3.8632e-02	1.0770e+03
401	2.5602e-01	1.0472e-01	1.9807e-01	-1.3604e-01	4.2963e+02
402	5.6844e-02	1.2041e-01	1.2289e-01	-1.0246e-01	5.4481e+02
403	4.2071e-02	9.3158e-02	-1.1004e-02	4.7510e-02	9.5952e+02
404	3.2563e-01	1.5370e-01	4.1779e-01	-1.6158e-01	7.8199e+00
405	1.0951e-01	1.2562e-01	1.1673e-01	-7.9206e-03	3.8707e+02
406	6.5724e-02	6.9509e-02	-7.8912e-02	-1.6861e-02	1.0889e+03
407	1.6956e-01	9.8582e-02	1.7080e-01	-1.3261e-02	5.2149e+02
408	3.1201e-01	1.3560e-01	3.2062e-01	-9.5569e-02	1.9335e+02
409	6.0008e-02	1.0684e-01	3.9021e-02	-1.0187e-02	7.5015e+02
410	2.0569e-01	1.3236e-01	2.6305e-01	6.0160e-02	2.5602e+02
411	3.8020e-01	1.3124e-01	3.4602e-01	-6.7740e-02	2.9239e+02
412	4.4045e-02	5.2094e-02	4.4525e-02	-2.7270e-02	1.3326e+03
413	1.1374e-01	1.1108e-01	1.1565e-01	-4.1480e-02	5.4666e+02
414	8.2510e-02	6.9559e-02	-3.2258e-02	-8.2426e-03	1.0468e+03
415	3.8536e-01	1.4156e-01	2.5337e-01	-5.5869e-02	1.9116e+02
416	1.3850e-01	9.1158e-02	1.7435e-01	-5.1387e-02	7.0151e+02
417	3.4626e-01	1.3527e-01	3.1451e-01	-1.9034e-01	9.0181e+01
418	1.3037e-01	7.9762e-02	-2.6712e-02	1.1990e-02	7.0596e+02
419	1.0750e-01	8.9753e-02	6.3788e-02	2.1201e-02	7.2754e+02
420	2.0716e-01	1.2410e-01	1.9199e-01	-1.1656e-01	2.8765e+02
421	1.9156e-01	8.4419e-02	7.9101e-02	7.4269e-03	5.7232e+02
422	1.6505e-01	1.1555e-01	1.0266e-01	5.6235e-02	3.2727e+02
423	2.0884e-01	8.6564e-02	1.0125e-01	-3.3269e-02	5.4656e+02
424	2.2241e-01	8.4875e-02	8.5260e-02	-9.9593e-02	5.4035e+02
425	2.8254e-01	4.5392e-02	9.4741e-02	-5.4271e-02	8.8963e+02
426	1.6156e-01	7.0698e-02	4.2046e-02	-2.7009e-02	7.6845e+02
427	1.6455e-01	8.8075e-02	1.0622e-01	3.4995e-02	6.2855e+02
428	2.0104e-01	5.7169e-02	1.3752e-04	-4.9006e-02	7.9427e+02
429	2.8612e-01	1.3791e-01	2.7435e-01	-2.9601e-02	2.0051e+02
430	4.3590e-01	1.4661e-01	3.7788e-01	-2.7893e-02	2.7555e+02
431	2.1513e-01	7.7420e-02	7.4481e-02	-2.0344e-02	5.7851e+02
432	2.4492e-01	8.3996e-02	9.5267e-02	-7.3825e-02	5.7292e+02
433	3.2917e-01	1.0575e-01	2.2380e-01	5.6003e-04	3.7615e+02
434	3.3247e-01	7.1041e-02	8.5760e-02	-7.5612e-02	7.7169e+02
435	5.0968e-01	1.3851e-01	3.2457e-01	-7.9989e-02	2.7858e+02
436	4.0917e-01	1.1398e-01	3.0936e-01	-8.7674e-02	5.8758e+02
437	3.8586e-01	1.1003e-01	1.7955e-01	-2.2424e-02	5.6716e+02
438	3.7627e-01	9.7656e-02	1.4720e-01	-1.2848e-01	5.4111e+02
439	6.1529e-01	1.5181e-01	3.7374e-01	-6.0587e-02	5.8411e+01
440	4.1541e-01	1.4640e-01	4.0699e-01	-9.9908e-02	0.0000e+00
441	3.3467e-01	9.4456e-02	1.2934e-01	-4.5055e-02	5.6101e+02
442	2.5808e-01	9.0092e-02	3.7263e-02	-9.0276e-02	4.4871e+02
443	3.7643e-01	1.1926e-01	2.7054e-01	-9.7292e-02	4.5062e+02
444	5.1613e-01	1.0977e-01	3.5389e-01	-9.9197e-02	6.1474e+02
445	6.4218e-01	1.3291e-01	3.3942e-01	-7.8431e-02	4.4042e+02
446	6.0381e-01	9.3577e-02	2.5218e-01	-8.0178e-02	6.0846e+02
447	6.5051e-01	1.1725e-01	3.3967e-01	-5.3280e-02	5.3879e+02
448	2.7399e-02	-9.1442e-04	-2.3352e-02	4.7122e-02	1.7148e+03
449	2.1992e-02	1.9348e-02	3.7076e-02	-1.0197e-01	1.7389e+03
450	1.5483e-01	1.0963e-01	2.4168e-01	-1.2924e-01	5.1824e+02
451	9.9203e-02	1.5391e-01	1.7127e-01	-1.4769e-01	0.0000e+00
452	5.4167e-02	-2.1512e-04	5.4268e-04	5.1567e-02	1.6917e+03
453	6.1550e-02	1.3974e-01	7.8215e-02	-5.0819e-02	3.6951e+02
454	5.6908e-02	1.0267e-01	9.6339e-02	1.4873e-02	7.7550e+02
455	1.0225e-02	2.3979e-02	2.3257e-03	5.1118e-02	1.7363e+03
456	1.2761e-01	1.3559e-01	3.0181e-01	-8.0273e-02	3.2172e+02
457	4.3955e-02	5.9754e-02	-6.4404e-02	2.3729e-02	1.2733e+03
458	6.0220e-02	4.6190e-02	-3.9772e-02	3.3290e-02	1.3973e+03
459	1.0030e-02	1.3429e-02	-1.8295e-02	-1.3920e-02	1.8004e+03
460	2.1382e-01	1.4886e-01	3.0459e-01	-5.9084e-02	6.4142e+01
461	8.7483e-02	1.3586e-01	1.9077e-01	-2.8264e-02	3.1444e+02
462	2.6229e-02	8.8070e-02	-8.6956e-03	2.7128e-02	9.6956e+02
463	3.5691e-02	1.3839e-01	-8.5453e-03	-7.0317e-02	4.2570e+02
464	2.4619e-01	1.2021e-01	2.2188e-01	-9.6741e-02	2.7204e+02
465	7.0248e-02	8.6916e-02	1.7751e-03	1.5347e-03	8.9695e+02
466	4.9108e-02	2.7179e-02	3.5400e-02	2.8289e-02	1.5884e+03
467	1.2267e-01	1.0518e-01	8.9117e-02	-1.8626e-02	5.4367e+02
468	2.6363e-02	3.3670e-02	5.9473e-02	1.1007e-02	1.5500e+03
469	4.7020e-02	7.3318e-02	2.3377e-02	-3.4039e-02	1.1093e+03
470	4.5689e-02	9.5512e-02	-6.8646e-02	-1.2641e-02	8.7889e+02
471	2.3597e-01	1.1372e-01	2.8948e-01	-6.3919e-02	3.4276e+02
472	9.5532e-02	6.2856e-02	2.0032e-02	6.2087e-02	1.0488e+03
473	1.0650e-01	1.0865e-01	9.7106e-02	2.1501e-02	6.1038e+02
474	5.4674e-02	3.7430e-02	3.3346e-02	-2.9349e-02	1.4504e+03
475	4.2248e-02	1.3460e-01	-8.8432e-04	4.4332e-04	4.2271e+02
476	1.8231e-01	1.3551e-01	2.1164e-01	8.2781e-04	3.0624e+02
477	1.2551e-01	1.1152e-01	1.7614e-01	-4.3446e-02	4.7090e+02
478	6.7835e-02	1.2140e-01	-1.0375e-03	6.6022e-02	5.0168e+02
479	1.7423e-01	1.5470e-01	2.6655e-01	-3.6418e-02	0.0000e+00
480	1.8252e-01	9.0167e-02	1.3637e-01	-4.2726e-02	5.0724e+02
481	2.3152e-01	1.0076e-01	7.7489e-02	-7.5129e-02	4.4565e+02
482	1.5202e-01	6.5892e-02	3.1397e-03	2.7851e-02	8.4895e+02
483	8.3000e-02	7.1752e-02	-2.8775e-02	6.7335e-03	1.0110e+03
484	1.2874e-01	7.0043e-02	5.3269e-02	2.4794e-02	9.2240e+02
485	1.2034e-01	7.6415e-02	3.8130e-02	-4.4703e-02	8.1012e+02
486	1.7807e-01	9.1987e-02	1.1954e-02	4.4717e-02	5.2555e+02
487	2.2497e-01	4.4798e-02	4.1198e-02	3.1686e-03	8.3559e+02
488	1.5926e-01	6.5505e-02	5.2485e-02	-1.4746e-02	8.1658e+02
489	2.4338e-01	5.8310e-02	8.5363e-02	-4.2946e-02	7.5179e+02
490	2.0940e-01	3.3520e-02	-2.0790e-02	-1.4993e-02	1.0218e+03
491	1.7875e-01	1.0833e-01	1.4650e-01	8.2773e-02	4.0002e+02
492	2.4679e-01	1.4220e-01	1.4741e-01	-9.8031e-02	6.5252e+01
493	2.1798e-01	1.1305e-01	1.4807e-01	-2.7373e-02	3.5420e+02
494	1.9609e-01	3.4491e-02	-1.4914e-02	-9.6525e-02	1.0164e+03
495	3.3777e-01	1.3337e-01	2.7542e-01	-8.7594e-02	2.8804e+02
496	2.5219e-01	9.5936e-02	1.2684e-01	-3.6088e-03	4.4527e+02
497	2.1052e-01	6.7224e-02	3.7380e-02	-6.9878e-02	6.9432e+02
498	2.8457e-01	1.2843e-01	2.0992e-01	1.5049e-02	2.4053e+02
499	3.0805e-01	9.6225e-02	1.2575e-01	-9.1948e-02	4.4663e+02
500	4.3840e-01	1.0880e-01	1.9986e-01	-7.5527e-02	6.1765e+02