variables="k","x","y","vx","vy","pressure"
zone i=8064 j=1
0	2.9375e-02	1.1876e-01	-3.9070e-02	-6.9941e-02	1.9024e+02
1	5.2591e-02	1.2284e-01	6.7020e-02	-4.7219e-02	4.2245e+01
2	2.3145e-01	9.0992e-02	2.3915e-01	-5.5016e-02	5.0439e+02
3	2.8606e-01	8.1839e-02	1.5009e-01	-1.1715e-02	5.7189e+02
4	1.0731e-01	9.6802e-02	8.3343e-02	-1.7917e-02	3.2487e+02
5	2.6327e-01	8.6810e-02	1.6233e-01	-2.6988e-02	5.2871e+02
6	3.9858e-01	1.2058e-01	3.4028e-01	-6.2089e-02	8.1951e+01
7	4.4798e-01	1.2819e-01	2.1294e-01	-5.4950e-02	0.0000e+00
8	-5.2950e-04	9.7905e-02	3.4348e-02	-8.4342e-02	2.6366e+02
9	3.4363e-01	1.1937e-01	3.0519e-01	-4.9319e-02	1.0663e+02
10	2.5496e-01	7.8718e-02	1.3535e-01	-1.2226e-01	6.3532e+02
11	2.3829e-01	1.2204e-01	2.2145e-01	-5.6004e-02	1.1750e+02
12	4.0574e-01	1.2010e-01	3.3008e-01	-3.6107e-02	9.3920e+01
13	6.2533e-01	1.2521e-01	4.2904e-01	1.3497e-02	0.0000e+00
14	2.7688e-01	9.4467e-02	2.0287e-01	-9.9428e-02	5.3332e+02
15	4.2415e-01	1.1786e-01	2.8614e-01	5.1036e-04	1.6283e+02
16	5.3492e-01	1.3030e-01	3.3880e-01	-1.9644e-02	0.0000e+00
17	5.4499e-01	7.3689e-02	1.4008e-01	-1.0350e-01	7.9493e+02
18	5.5869e-01	1.3486e-01	1.4960e-01	1.0753e-01	0.0000e+00
19	7.9626e-02	1.2322e-01	1.0929e-01	-1.9909e-02	8.2320e+01
20	5.2884e-01	1.3270e-01	2.7624e-01	-1.5186e-02	-1.5559e+02
21	5.8433e-02	1.2177e-01	1.0719e-01	-1.3940e-02	8.3897e+01
22	2.5604e-01	9.0390e-02	1.8542e-01	-3.4434e-02	4.8094e+02
23	4.0998e-01	1.0607e-01	3.7185e-01	-4.9413e-02	2.0770e+02
24	6.0773e-01	1.2393e-01	4.0002e-01	-5.1911e-02	6.9766e+02
25	-5.2717e-05	1.1786e-01	9.4283e-02	-4.1936e-02	6.8504e+01
26	1.6993e-01	8.7872e-02	8.1514e-02	6.5386e-02	4.9011e+02
27	5.1289e-01	1.2874e-01	3.8044e-01	-4.2357e-02	1.1281e+02
28	6.8918e-01	1.2670e-01	2.1114e-01	-3.1782e-03	-1.1128e+02
29	6.2087e-01	1.1130e-01	3.9539e-01	-2.2636e-02	6.3945e+02
30	-2.1941e-04	1.1836e-01	3.7187e-01	-7.2613e-02	1.1829e+02
31	2.5872e-01	5.5653e-02	4.5013e-02	-3.2349e-02	8.0532e+02
32	7.4751e-01	1.1379e-01	3.1140e-01	4.5184e-02	9.9474e+02
33	6.0564e-01	8.5318e-02	2.3655e-01	8.6161e-03	7.2599e+02
34	6.9297e-01	1.0612e-01	2.3865e-01	-9.1610e-02	1.4664e+03
35	6.8481e-01	9.4535e-02	3.1893e-01	-8.7925e-02	8.6873e+02
36	7.1344e-01	1.1239e-01	4.5723e-01	-1.9877e-01	-8.6373e+02
37	5.8739e-01	1.0112e-01	3.4450e-01	-1.7396e-01	2.2219e+02
38	6.7023e-01	9.4115e-02	2.6703e-01	-9.2873e-02	6.4943e+02
39	8.8667e-01	1.1008e-01	3.3583e-01	-1.0746e-01	3.7828e+02
40	8.6453e-01	1.2625e-01	4.4682e-01	-3.6428e-02	2.2116e+02
41	4.6781e-01	9.6374e-02	2.6126e-01	-1.9990e-02	4.1296e+02
42	3.6822e-01	7.9734e-02	1.5082e-01	3.1887e-02	5.2503e+02
43	6.4037e-01	9.4701e-02	2.8466e-01	-4.5544e-02	7.2970e+02
44	6.4177e-01	1.2404e-01	3.2279e-01	5.4261e-02	1.9969e+02
45	7.4245e-01	1.0587e-01	2.7081e-01	8.9740e-03	4.9266e+02
46	4.9027e-01	8.9350e-02	2.2797e-01	1.5134e-02	3.7434e+02
47	7.5955e-01	1.2891e-01	3.5345e-01	-1.4521e-02	-4.9707e+02
48	7.4139e-01	1.2497e-01	3.9366e-01	-4.8555e-02	1.4712e+03
49	9.2410e-01	1.3084e-01	4.5444e-01	-2.0168e-01	0.0000e+00
50	9.5435e-01	1.2591e-01	4.8964e-01	-1.1315e-02	2.0767e+02
51	6.6870e-01	1.0864e-01	3.6026e-01	-5.9812e-02	3.2990e+02
52	4.3747e-01	7.6213e-02	1.7443e-01	-4.6160e-02	5.6698e+02
53	9.9591e-01	1.2679e-01	4.3449e-01	-4.7678e-01	0.0000e+00
54	6.8240e-01	9.3851e-02	2.6122e-01	-2.0922e-02	8.5081e+02
55	7.7947e-01	9.7621e-02	3.6301e-01	-5.6254e-02	8.0420e+02
56	3.8664e-01	3.9465e-02	1.0225e-01	-6.4933e-02	9.1122e+02
57	8.3562e-01	1.0542e-01	3.8096e-01	-6.7435e-02	5.3417e+02
58	9.0378e-01	1.0299e-01	4.0910e-01	-9.9081e-02	4.3592e+02
59	3.8100e-01	7.1197e-02	1.7681e-01	-6.2241e-03	6.4888e+02
60	9.7532e-01	1.2428e-01	4.3825e-01	1.9380e-01	0.0000e+00
61	4.8303e-01	1.0539e-01	1.8530e-01	1.0605e-02	3.7940e+02
62	9.3873e-01	1.2818e-01	4.1545e-01	-1.9916e-01	0.0000e+00
63	9.3980e-01	6.6045e-02	3.3285e-01	-1.4904e-01	7.4637e+02
64	2.2777e-02	-1.7884e-03	-3.5200e-04	9.3119e-03	1.0852e+03
65	-1.3014e-03	2.1606e-02	-1.1268e-01	-1.8800e-02	1.0273e+03
66	8.1053e-03	-1.0009e-03	6.6871e-02	1.6597e-01	1.0876e+03
67	2.5743e-01	1.1940e-01	2.5097e-01	-9.7048e-02	1.0354e+02
68	6.8885e-02	1.2718e-01	1.6242e-02	-3.0341e-02	0.0000e+00
69	2.3348e-01	8.6927e-02	1.6053e-01	-4.7753e-02	5.4572e+02
70	3.7255e-01	1.1967e-01	3.8625e-01	5.6098e-03	5.7151e+01
71	2.6011e-01	9.6950e-02	2.5624e-01	-1.5269e-02	4.1756e+02
72	4.0955e-01	1.1962e-01	3.6674e-01	-2.7131e-02	1.3268e+02
73	1.3384e-02	1.2885e-01	-1.8327e-02	-4.0422e-02	-1.5073e+01
74	3.7048e-01	1.0490e-01	2.5538e-01	1.5813e-02	3.1007e+02
75	3.8702e-01	1.2075e-01	3.6682e-01	-2.6082e-02	5.2668e+01
76	3.2990e-01	1.0426e-01	2.4923e-01	-4.5270e-02	3.0243e+02
77	3.4363e-01	1.1606e-01	2.7339e-01	-4.9123e-02	1.1325e+02
78	4.5946e-01	1.2855e-01	1.9868e-01	-2.7428e-02	4.2669e+01
79	4.0405e-01	1.2039e-01	3.1374e-01	-3.9813e-02	8.3653e+01
80	1.6856e-01	1.2519e-01	2.0710e-01	-5.3289e-02	5.3746e+01
81	2.9498e-01	1.0681e-01	1.7474e-01	-1.0369e-01	1.8690e+02
82	4.3518e-01	1.2347e-01	3.2297e-01	-5.2830e-03	2.7409e+01
83	5.1057e-01	1.1431e-01	2.9494e-01	-1.5244e-02	1.9121e+02
84	4.4005e-01	8.1458e-02	2.2575e-01	-7.6313e-02	5.6226e+02
85	6.3154e-01	1.1225e-01	3.8467e-01	-4.4525e-03	1.7587e+02
86	6.6208e-01	8.4087e-02	2.4791e-01	-3.4962e-02	7.5321e+02
87	3.3582e-01	9.2027e-02	2.1606e-01	-1.2997e-02	4.9244e+02
88	5.3605e-01	1.2108e-01	2.4142e-01	-1.4863e-01	6.3504e+02
89	6.6014e-01	1.2385e-01	3.8936e-01	6.2460e-02	2.3427e+02
90	7.2141e-01	8.5650e-02	3.0688e-01	-7.1280e-02	4.3622e+02
91	3.4525e-01	9.5497e-02	2.5865e-01	-8.3944e-02	4.5096e+02
92	5.6665e-01	1.3173e-01	1.3990e-01	9.0716e-02	0.0000e+00
93	5.9279e-01	1.1837e-01	6.2513e-01	-3.1953e-02	-3.2846e+03
94	4.9422e-01	1.2687e-01	2.6514e-01	-2.0400e-02	4.5273e+01
95	1.8888e-01	3.0415e-02	5.9683e-02	-4.5383e-02	1.0684e+03
96	6.6834e-01	1.2612e-01	2.0210e-01	1.3705e-03	3.1133e+02
97	6.7484e-01	1.3074e-01	3.7830e-01	9.3000e-02	0.0000e+00
98	5.5797e-01	1.0912e-01	1.1229e-01	-1.1021e-01	3.2377e+02
99	7.5058e-01	1.2679e-01	3.6329e-01	-1.3571e-02	0.0000e+00
100	6.8860e-01	1.2893e-01	2.2650e-01	1.1601e-01	-4.7601e+02
101	3.4611e-01	7.7956e-02	1.2864e-01	-3.7945e-02	6.2125e+02
102	7.0310e-01	1.2729e-01	2.9126e-01	2.3325e-01	-2.5567e+03
103	7.6347e-01	1.2875e-01	4.1189e-01	-2.0314e-02	0.0000e+00
104	7.2237e-01	1.2780e-01	5.4062e-01	2.1658e-01	0.0000e+00
105	8.2364e-01	1.2830e-01	4.2947e-01	-4.0955e-02	9.0800e+01
106	6.3718e-01	6.6591e-02	2.4270e-01	7.2498e-03	9.1832e+02
107	7.3309e-01	6.7115e-02	3.3186e-01	-9.2792e-02	1.0518e+03
108	7.6703e-01	1.0678e-01	3.7353e-01	-2.1154e-02	3.5472e+02
109	6.7664e-01	1.1108e-01	2.2443e-01	-8.9864e-03	5.7085e+02
110	6.9511e-01	9.2917e-02	2.7611e-01	-5.1438e-02	6.2233e+02
111	7.8130e-01	7.8645e-02	3.6500e-01	-1.2635e-01	8.4684e+02
112	7.9402e-01	1.2948e-01	3.5580e-01	-2.4715e-02	2.4228e+01
113	5.8042e-01	5.9789e-02	2.0909e-01	-5.1387e-02	9.7187e+02
114	8.6001e-01	1.2794e-01	3.6729e-01	-3.1715e-02	1.7844e+02
115	6.2493e-01	6.7713e-02	2.0211e-01	-4.8345e-02	9.9231e+02
116	7.8176e-01	1.2552e-01	4.6368e-01	-2.0440e-02	2.2946e+02
117	8.2331e-01	1.1332e-01	4.0299e-01	1.9016e-04	4.5313e+02
118	9.3067e-01	1.2979e-01	3.1798e-01	-2.0629e-01	0.0000e+00
119	9.7724e-01	1.0246e-01	5.0392e-01	-5.0017e-02	3.8886e+02
120	8.8248e-01	8.5656e-02	3.4241e-01	-3.4247e-02	6.1215e+02
121	8.6334e-01	1.2664e-01	4.3346e-01	-3.0914e-02	2.0739e+02
122	8.9761e-01	1.3671e-01	4.3991e-01	-5.1196e-02	0.0000e+00
123	8.1579e-01	1.2980e-01	3.9053e-01	-5.1068e-02	1.5179e+02
124	4.9613e-01	7.4393e-02	1.5311e-01	-7.2231e-02	5.0504e+02
125	1.0770e+00	1.6053e-01	8.1594e-01	-3.8364e-01	0.0000e+00
126	7.0635e-01	8.9155e-02	3.0749e-01	-8.4872e-02	3.8252e+02
127	5.3523e-01	5.1070e-02	1.7133e-01	-5.4885e-02	9.2331e+02
128	1.4153e-01	1.1244e-01	1.6464e-01	-4.6449e-02	1.8760e+02
129	-3.4080e-04	8.6952e-02	1.0783e-01	-8.4462e-02	4.8531e+02
130	2.8500e-01	1.1508e-01	2.7225e-01	-9.3578e-03	2.1768e+02
131	3.1710e-02	1.1916e-01	4.6081e-02	1.7602e-02	-1.1090e+02
132	2.3724e-02	8.5730e-02	-4.3330e-02	-3.2919e-02	4.1473e+02
133	2.2042e-01	8.4131e-02	1.8841e-01	-8.4723e-02	4.6948e+02
134	3.6099e-01	1.1895e-01	3.7884e-01	-2.3786e-02	1.4176e+02
135	1.5679e-01	1.2395e-01	1.2999e-01	-5.6181e-02	8.7451e+01
136	2.5359e-01	6.1574e-02	4.8793e-02	-5.8565e-02	7.7409e+02
137	3.8614e-01	1.2046e-01	3.2863e-01	-3.2624e-02	6.5914e+01
138	3.6794e-01	1.1681e-01	2.9481e-01	-1.1456e-02	1.8555e+02
139	2.4101e-01	1.2192e-01	2.4790e-01	-7.3581e-02	1.0639e+02
140	2.5492e-01	1.1654e-01	2.9999e-01	-6.8883e-02	7.6278e+01
141	3.0420e-01	1.1888e-01	2.8989e-01	-7.8118e-02	1.2077e+02
142	3.5147e-01	1.1832e-01	3.3513e-01	-5.0597e-02	8.2785e+01
143	3.0830e-01	8.5523e-02	1.7974e-01	-1.4004e-01	5.4426e+02
144	3.2826e-01	1.1891e-01	3.7313e-01	-7.8253e-02	5.5680e+01
145	1.9033e-01	8.1540e-02	1.3256e-01	-3.9475e-02	5.8019e+02
146	6.1591e-01	1.2327e-01	3.7407e-01	3.1419e-03	9.9550e+02
147	2.9414e-01	4.3195e-02	9.3259e-02	-7.1870e-02	9.7399e+02
148	6.8972e-01	1.0845e-01	1.8901e-01	-1.0166e-01	1.1607e+03
149	2.6767e-01	1.0237e-01	2.6946e-01	-5.8792e-02	3.8227e+02
150	4.4722e-01	6.4196e-02	1.5386e-01	-1.1078e-01	7.0229e+02
151	3.6916e-01	8.7558e-02	2.2590e-01	-2.3557e-02	5.2222e+02
152	5.2949e-01	8.7599e-02	3.3672e-01	8.6113e-02	-4.5181e+02
153	4.7931e-01	1.1117e-01	2.8035e-01	-3.7457e-02	3.2223e+02
154	4.3968e-01	1.1297e-01	2.9477e-01	-8.2480e-02	1.6732e+02
155	5.8127e-01	1.1497e-01	2.2888e-01	-2.8652e-01	1.7234e+03
156	4.8828e-01	1.3026e-01	3.0090e-01	-3.8600e-02	1.1060e+02
157	5.4253e-01	1.1324e-01	1.3331e-01	-2.0612e-01	1.4386e+03
158	6.5016e-01	1.2466e-01	3.4832e-01	5.0268e-02	2.5180e+02
159	2.0470e-01	1.0847e-01	2.2467e-01	2.7709e-02	3.9182e+02
160	4.5316e-01	7.8330e-02	1.7087e-01	-1.2905e-01	5.6361e+02
161	7.3011e-01	1.0682e-01	4.1971e-01	6.0210e-03	1.4369e+02
162	6.9915e-01	1.3161e-01	2.3760e-01	2.1621e-01	0.0000e+00
163	3.8924e-01	1.0356e-01	2.7736e-01	-4.3613e-02	3.2151e+02
164	3.6603e-01	1.1970e-01	2.8282e-01	-5.6563e-04	7.4156e+01
165	8.0244e-01	1.2903e-01	4.3753e-01	-2.9772e-02	2.0950e+01
166	8.7205e-01	1.2933e-01	4.3867e-01	-9.9203e-03	2.3072e+02
167	8.2248e-01	1.2692e-01	4.6440e-01	-9.5399e-02	3.1773e+02
168	5.9855e-01	9.4552e-02	3.2674e-01	2.3333e-04	1.0897e+03
169	7.9183e-01	1.2755e-01	3.9507e-01	-2.2690e-03	2.8638e+01
170	8.4692e-01	1.2596e-01	4.7584e-01	-2.2202e-02	2.5428e+02
171	5.4980e-01	1.2715e-01	2.8650e-01	-7.0891e-02	3.5505e+02
172	6.7956e-01	1.3207e-01	2.2122e-01	4.7026e-02	0.0000e+00
173	3.9644e-01	8.7814e-02	2.2778e-01	-2.6865e-02	4.6451e+02
174	9.0242e-01	1.1664e-01	4.6977e-01	-1.1814e-01	5.2488e+02
175	8.9027e-01	1.2732e-01	4.3696e-01	-4.4523e-02	1.7956e+02
176	8.6925e-01	9.6948e-02	3.5247e-01	-3.9338e-02	6.3730e+02
177	7.2315e-01	1.1990e-01	4.5184e-01	-1.5167e-01	-8.7669e+03
178	8.3519e-01	1.2868e-01	4.4889e-01	-3.9622e-02	1.0081e+02
179	6.4457e-01	6.1206e-02	2.2939e-01	-7.1125e-02	9.6181e+02
180	7.2239e-01	1.2875e-01	4.7368e-01	1.6596e-01	0.0000e+00
181	5.5536e-01	1.0892e-01	2.1441e-01	-4.6152e-02	2.1934e+02
182	7.0392e-01	1.2519e-01	3.0458e-01	1.3073e-01	-1.8441e+03
183	9.2118e-01	1.0626e-01	3.8275e-01	-1.7365e-01	3.8510e+02
184	7.7826e-01	1.2479e-01	4.1665e-01	-4.3844e-02	1.6304e+02
185	8.8961e-01	1.3468e-01	2.5764e-01	-8.3698e-02	0.0000e+00
186	8.8050e-01	1.2988e-01	3.9212e-01	-5.8387e-03	3.3216e+02
187	7.4338e-01	7.1361e-02	2.9427e-01	2.8965e-02	1.0597e+03
188	8.7187e-01	1.0999e-01	4.4828e-01	-4.3284e-02	4.7879e+02
189	7.7550e-01	9.3579e-02	3.1515e-01	-5.2497e-02	9.1035e+02
190	4.0212e-01	3.8195e-02	7.0037e-02	-2.5862e-02	8.9080e+02
191	5.4107e-01	7.0203e-02	1.8018e-01	4.9261e-02	8.0745e+02
192	2.1818e-01	1.2210e-01	2.6361e-01	-1.1138e-01	6.1759e+01
193	7.2163e-02	1.0308e-01	-1.3144e-02	-6.1537e-02	2.2050e+02
194	3.5266e-02	1.1994e-01	4.5831e-02	-9.0882e-02	1.1496e+02
195	2.9833e-01	7.3709e-02	9.1323e-02	-7.3071e-02	6.9525e+02
196	-5.2724e-04	7.6880e-02	2.1434e-01	-8.6915e-02	6.2618e+02
197	9.3420e-02	1.2104e-01	8.5599e-02	-4.7854e-02	9.2363e+01
198	1.7952e-01	1.2421e-01	1.5598e-01	-4.0753e-02	-3.8992e+01
199	4.5162e-01	9.7009e-02	3.0498e-01	-1.2951e-01	3.3310e+02
200	1.5119e-01	1.2356e-01	1.7751e-01	-3.7164e-02	6.5944e+01
201	1.2806e-01	9.0081e-02	5.1694e-02	-6.7906e-02	4.7659e+02
202	3.5040e-01	1.0893e-01	2.3545e-01	-2.7533e-02	2.1865e+02
203	2.1130e-02	8.5339e-02	-5.9196e-02	1.0143e-01	4.0893e+02
204	2.5329e-01	1.0926e-01	2.1485e-01	-5.7744e-04	2.8224e+02
205	1.7655e-01	1.1038e-01	2.3162e-01	-9.5482e-02	2.8510e+02
206	2.9369e-01	1.1978e-01	2.8587e-01	-3.5749e-02	6.8762e+01
207	3.4043e-01	6.6070e-02	1.3276e-01	-2.6329e-02	7.1815e+02
208	4.5733e-01	1.3062e-01	3.4081e-01	2.3941e-02	-3.2256e+01
209	1.4101e-01	1.2245e-01	1.5780e-01	-2.9451e-02	4.2975e+01
210	5.0954e-01	1.2842e-01	2.7666e-01	-4.0823e-02	1.7314e+01
211	2.7207e-01	1.2224e-01	2.9138e-01	-7.3738e-02	5.4698e+01
212	2.9540e-01	1.0272e-01	2.6357e-01	-1.0472e-02	4.1006e+02
213	1.1152e-01	1.2583e-01	1.4220e-01	-1.3952e-01	2.3778e+02
214	5.2211e-01	1.2709e-01	3.4488e-01	-7.1867e-02	4.7070e+02
215	4.2622e-01	6.7742e-02	9.1924e-02	-1.0352e-01	6.1842e+02
216	3.8845e-01	1.0965e-01	3.0971e-01	-4.7375e-02	1.6254e+02
217	2.0703e-01	4.7080e-02	6.7353e-04	-5.4695e-02	9.5259e+02
218	5.8951e-01	1.0651e-01	5.0954e-01	-1.8587e-01	-8.4363e+02
219	3.2612e-01	1.0432e-01	1.5445e-01	-7.3287e-02	3.0823e+02
220	3.2771e-01	1.2023e-01	2.9160e-01	-7.9667e-02	5.5815e+01
221	5.3032e-01	1.3107e-01	2.6943e-01	-1.3841e-02	-1.2799e+02
222	1.9059e-01	6.7597e-02	4.2760e-02	1.3424e-02	7.0586e+02
223	1.9631e-01	1.2498e-01	2.6953e-01	-3.1793e-02	3.7022e+01
224	4.6409e-01	1.0315e-01	1.7018e-01	-1.6934e-02	2.8672e+02
225	6.8045e-01	1.3004e-01	2.7159e-01	5.6244e-02	-3.6207e+01
226	2.6249e-01	7.3525e-02	6.7166e-02	-3.4560e-03	7.2920e+02
227	6.4500e-01	1.2407e-01	4.1452e-01	4.7709e-02	1.9137e+02
228	5.5048e-01	6.0466e-02	1.7181e-01	-1.8642e-02	9.0663e+02
229	7.9844e-01	1.2959e-01	4.2940e-01	-2.3567e-02	1.1827e+01
230	3.3198e-01	8.3337e-02	1.6798e-01	-5.5266e-02	5.9623e+02
231	3.8253e-01	8.5653e-02	1.9595e-01	-7.6073e-02	5.5699e+02
232	7.3634e-01	1.2647e-01	5.0932e-01	-2.5876e-01	2.2808e+02
233	4.1092e-01	6.3313e-02	5.5998e-02	2.3695e-02	6.2643e+02
234	5.6737e-01	1.0553e-01	2.1059e-01	-1.2899e-01	4.2318e+02
235	6.1399e-01	1.0455e-01	2.7504e-01	3.0037e-02	1.0307e+03
236	7.3840e-01	1.1525e-01	4.0633e-01	1.6090e-02	1.1486e+03
237	4.2065e-01	8.4743e-02	2.2405e-01	-2.5750e-02	4.4668e+02
238	2.5904e-01	2.5363e-02	-1.9414e-02	-2.5964e-02	1.1730e+03
239	5.9669e-01	7.7166e-02	3.2125e-01	-1.1326e-01	7.4371e+02
240	8.4400e-01	1.2453e-01	4.3815e-01	-4.0795e-02	2.8038e+02
241	8.7658e-01	1.3272e-01	4.3836e-01	-4.0755e-04	0.0000e+00
242	6.6980e-01	5.8730e-02	2.2728e-01	-9.9546e-04	1.0186e+03
243	5.8930e-01	9.2390e-02	2.4713e-01	-9.0770e-02	1.1332e+03
244	3.5747e-01	9.5561e-02	2.4668e-01	-3.7223e-02	4.1965e+02
245	4.9871e-01	1.1335e-01	2.9136e-01	-6.9070e-03	1.9714e+02
246	3.7405e-01	6.6711e-02	1.4132e-01	-1.6308e-02	6.4068e+02
247	4.9523e-01	5.7842e-02	1.6391e-01	-7.9789e-02	9.0087e+02
248	7.2112e-01	9.9806e-02	4.0008e-01	-5.8456e-02	8.8775e+02
249	3.7718e-01	3.5961e-02	1.0045e-01	-1.0488e-01	9.7026e+02
250	3.7120e-01	9.0870e-02	2.3076e-01	-1.3090e-03	4.7557e+02
251	5.3522e-01	8.6031e-02	1.5956e-01	1.2613e-01	3.0392e+02
252	5.7637e-01	1.0233e-01	2.3645e-01	-2.0006e-01	5.3451e+02
253	2.4906e-01	4.9749e-02	7.6047e-03	-3.9245e-02	9.4497e+02
254	6.6884e-01	1.0310e-01	2.9992e-01	-6.4635e-02	5.1805e+02
255	1.0294e+00	1.1634e-01	4.7275e-01	-3.7153e-01	0.0000e+00
256	2.7167e-01	1.2134e-01	2.9521e-01	-7.2229e-02	5.2361e+01
257	1.3557e-02	5.4474e-02	5.6478e-02	-3.4092e-02	7.4369e+02
258	3.6205e-04	1.0243e-02	2.0949e-04	-5.1386e-02	1.0769e+03
259	3.1914e-01	1.0742e-01	2.7787e-01	-6.8566e-02	2.9685e+02
260	1.4422e-01	1.0929e-01	1.2028e-01	-3.0707e-02	2.5078e+02
261	5.3556e-02	1.0809e-01	4.4169e-02	-6.1869e-02	1.9801e+02
262	4.6685e-02	7.6930e-02	7.7948e-02	2.0570e-02	4.7591e+02
263	2.7399e-01	8.6076e-02	1.5908e-01	-6.2273e-02	5.4423e+02
264	1.0335e-01	1.1995e-01	9.2179e-02	-2.9090e-02	-8.4760e+01
265	7.2531e-02	1.2539e-01	5.8904e-02	-2.0860e-02	0.0000e+00
266	2.1344e-01	7.6592e-02	-8.1032e-03	-6.4353e-05	6.2595e+02
267	8.1221e-02	3.3077e-02	2.9475e-02	4.1869e-03	8.7390e+02
268	2.2593e-01	1.2471e-01	2.5289e-01	-9.5020e-02	1.3430e+02
269	2.3927e-01	1.1955e-01	2.1869e-01	-7.7097e-02	1.9217e+02
270	1.1136e-01	8.7175e-02	4.2336e-03	1.6439e-02	4.1406e+02
271	2.5268e-01	1.0698e-01	2.0822e-01	-1.1038e-01	2.5815e+02
272	1.5718e-01	1.0499e-01	1.2108e-01	-1.9851e-02	2.8968e+02
273	5.9292e-02	7.7759e-02	1.9029e-02	7.1303e-02	4.3791e+02
274	4.2939e-01	9.7894e-02	2.5006e-01	-5.5322e-02	3.4569e+02
275	3.5895e-01	9.2748e-02	2.3402e-01	-3.8888e-02	4.4712e+02
276	3.2066e-01	7.1188e-02	9.2890e-02	-7.3263e-02	6.7797e+02
277	5.4465e-01	1.2531e-01	2.6693e-01	-5.2596e-02	7.1977e+01
278	4.2130e-01	7.9890e-02	2.0519e-01	-2.0111e-02	4.7367e+02
279	4.7904e-01	1.2879e-01	3.4111e-01	-6.5101e-02	6.2661e+01
280	5.6177e-01	1.0921e-01	1.6631e-01	-7.1433e-02	3.2578e+02
281	1.5068e-02	1.2909e-01	-1.6168e-02	-4.1743e-02	-8.6017e-01
282	6.0024e-01	1.2088e-01	4.9667e-01	-7.4213e-02	-1.3956e+03
283	4.0730e-01	6.7102e-02	1.3886e-01	-2.7827e-02	7.0608e+02
284	3.1018e-01	7.4820e-02	2.1177e-01	-2.7814e-02	6.5479e+02
285	4.4514e-01	1.1210e-01	2.1929e-01	-8.2494e-02	2.7386e+02
286	1.9375e-01	1.1385e-01	1.7191e-01	1.3283e-02	2.5747e+02
287	3.1015e-01	1.0317e-01	2.3848e-01	-8.1777e-02	2.5609e+02
288	4.1496e-01	9.6441e-02	2.3943e-01	-5.0697e-02	3.0931e+02
289	7.6044e-02	7.5066e-02	-2.0170e-02	-4.2018e-02	5.5663e+02
290	4.7725e-01	8.1736e-02	2.6885e-01	-4.4446e-02	7.3427e+02
291	2.1197e-01	9.4649e-02	1.8772e-01	-4.6040e-02	4.5988e+02
292	6.0220e-01	1.0768e-01	3.9262e-01	6.2985e-02	6.9385e+02
293	4.7083e-01	1.1937e-01	1.8662e-01	-7.3518e-03	1.7631e+02
294	3.2355e-01	5.8297e-02	6.1793e-02	-4.7010e-02	8.9526e+02
295	2.7664e-01	7.7926e-02	1.2921e-01	-3.1896e-02	5.7805e+02
296	3.8923e-01	1.0143e-01	2.1741e-01	-4.0373e-03	4.1543e+02
297	4.6000e-01	1.3156e-01	2.5536e-01	-2.8652e-02	5.0722e+01
298	6.1734e-01	1.2372e-01	3.5946e-01	7.1980e-03	9.0329e+02
299	2.0491e-01	1.0800e-01	1.5777e-01	-1.9058e-02	3.0936e+02
300	2.0374e-01	5.1720e-02	4.8379e-02	-2.1591e-02	8.7352e+02
301	6.3406e-01	1.2748e-01	4.1052e-01	6.5647e-02	4.8688e+01
302	7.5879e-01	1.1429e-01	4.1865e-01	1.8525e-03	-3.3200e+02
303	3.7263e-01	1.0725e-01	1.7734e-01	-1.5904e-02	2.0314e+02
304	6.2590e-01	8.3471e-02	2.8081e-01	-8.8583e-02	7.9149e+02
305	7.7297e-01	1.1749e-01	3.8058e-01	-3.3887e-02	1.2517e+02
306	6.3247e-01	1.2661e-01	3.5998e-01	9.2120e-03	0.0000e+00
307	8.3071e-01	1.2662e-01	4.2910e-01	-3.6346e-02	9.3805e+01
308	5.5899e-01	8.9079e-02	2.0938e-01	-7.6083e-02	8.1557e+02
309	7.1523e-01	1.0734e-01	4.8904e-01	-2.7921e-02	6.9350e+02
310	6.6936e-01	7.7481e-02	2.5737e-01	-5.9461e-02	8.6457e+02
311	6.5454e-01	1.0659e-01	2.8340e-01	-3.1197e-02	3.0257e+02
312	4.3358e-01	8.7626e-02	1.5435e-01	-6.2976e-02	4.9982e+02
313	3.9653e-01	7.4910e-02	2.0998e-01	-3.1882e-02	4.9168e+02
314	9.2703e-01	1.1162e-01	4.6237e-01	-3.3856e-02	3.5544e+02
315	9.0247e-01	1.2974e-01	3.0567e-01	-5.1562e-03	3.7348e+01
316	6.6550e-01	1.1642e-01	3.9393e-01	-3.7079e-02	1.5193e+02
317	7.5109e-01	1.2596e-01	2.7812e-01	4.8424e-02	0.0000e+00
318	9.4697e-01	9.7339e-02	5.3222e-01	-6.4668e-02	3.0875e+02
319	9.4377e-01	1.1294e-01	4.4079e-01	-8.3312e-02	3.4055e+02
320	2.1440e-02	5.7376e-02	-7.6282e-03	5.7330e-03	6.7426e+02
321	2.0545e-02	1.2560e-01	2.0464e-02	-4.1221e-02	6.3445e+00
322	1.9738e-02	5.4786e-02	3.9539e-02	4.6007e-03	7.0358e+02
323	1.8219e-01	1.1171e-01	1.2843e-01	-7.2602e-02	3.1652e+02
324	1.3670e-01	-1.2574e-04	2.6237e-02	-1.3838e-01	1.1258e+03
325	1.2179e-01	1.2555e-01	1.3874e-01	-1.0288e-01	0.0000e+00
326	2.1746e-01	1.1032e-01	1.7263e-01	-9.1702e-02	2.1427e+02
327	3.5141e-01	1.0210e-01	2.2816e-01	-4.2663e-02	3.3504e+02
328	1.3509e-01	1.2125e-01	1.6359e-01	-1.5153e-02	4.5493e+01
329	6.8914e-02	1.1565e-01	3.9034e-02	5.7608e-03	2.2117e+02
330	1.7947e-01	1.2584e-01	1.7359e-01	-7.6639e-02	0.0000e+00
331	1.1766e-01	7.8870e-02	7.4366e-02	-1.9206e-02	5.0757e+02
332	2.6925e-01	7.1596e-02	1.1154e-01	-1.0968e-01	7.6078e+02
333	4.5849e-02	1.2298e-01	8.8961e-02	-7.2993e-02	8.6153e+01
334	6.6697e-02	1.2588e-01	8.2695e-02	1.5880e-03	4.2289e+01
335	2.4486e-01	9.5156e-02	2.6080e-01	-1.7109e-02	4.6671e+02
336	2.9372e-01	1.1984e-01	2.8653e-01	-3.6103e-02	6.8557e+01
337	2.7997e-01	1.0286e-01	2.2860e-01	-5.6303e-02	3.6354e+02
338	1.2958e-01	1.2483e-01	1.8540e-01	-2.2335e-02	-1.8657e+01
339	7.6802e-02	5.5875e-02	5.7705e-03	-3.8254e-02	6.9825e+02
340	3.4863e-01	7.6467e-02	2.3256e-01	-1.0188e-01	6.6564e+02
341	3.1351e-01	1.1983e-01	2.8291e-01	-8.4522e-02	1.0576e+02
342	4.2368e-01	1.1924e-01	2.8070e-01	5.5243e-03	1.4273e+02
343	5.8089e-01	1.3205e-01	5.2911e-01	2.3737e-01	0.0000e+00
344	4.3045e-01	1.2443e-01	2.1577e-01	-2.1898e-02	5.6837e+01
345	4.5520e-01	1.1520e-01	2.3081e-01	-1.0457e-02	2.8563e+02
346	6.5648e-01	1.2160e-01	3.5066e-01	1.8583e-02	2.8508e+02
347	4.5168e-01	9.3892e-02	2.0235e-01	-7.1653e-02	3.0977e+02
348	1.3524e-01	1.0403e-01	1.4065e-01	-2.1411e-02	3.3554e+02
349	2.3851e-01	8.0160e-02	1.1910e-01	-3.3483e-02	6.4966e+02
350	9.4224e-02	8.1292e-02	3.3157e-02	2.0383e-03	4.3416e+02
351	3.1144e-01	8.9964e-02	2.1212e-01	-8.1980e-02	4.8893e+02
352	4.4423e-01	1.1901e-01	3.1251e-01	3.6732e-02	1.2525e+02
353	4.2480e-01	1.0218e-01	3.1708e-01	-3.6474e-02	2.9590e+02
354	4.0651e-01	1.0522e-01	2.5256e-01	-7.3361e-02	2.4466e+02
355	1.7035e-01	6.7208e-02	8.1095e-02	-8.3868e-02	6.9426e+02
356	1.6579e-01	6.5265e-02	2.9478e-02	-2.8868e-02	6.9979e+02
357	1.1368e-02	1.0240e-01	-7.5570e-02	-3.7183e-02	3.3589e+02
358	3.2698e-01	4.5053e-02	7.7668e-02	-7.6561e-02	9.1096e+02
359	2.3716e-01	4.3282e-02	6.9860e-03	-2.3656e-02	1.0173e+03
360	3.3286e-01	6.7800e-02	1.8184e-01	-6.0858e-02	7.2297e+02
361	6.5027e-01	1.0753e-01	2.7866e-01	7.6287e-02	4.1629e+02
362	2.5004e-01	7.5807e-02	1.2368e-01	1.0778e-02	6.4151e+02
363	4.0598e-01	8.0076e-02	2.4426e-01	-5.8351e-02	5.4345e+02
364	2.9193e-01	7.5186e-02	1.6682e-01	-2.1270e-02	6.9886e+02
365	4.7557e-01	6.5565e-02	1.6189e-01	-1.1820e-01	6.9341e+02
366	4.7888e-01	1.2733e-01	2.8197e-01	-5.9862e-02	5.4952e+01
367	2.1981e-01	6.0917e-02	3.4849e-02	-2.5870e-02	8.5302e+02
368	3.4898e-01	8.5336e-02	1.4017e-01	7.6933e-03	4.9852e+02
369	3.6634e-01	7.2688e-02	1.6076e-01	-6.1739e-02	5.8127e+02
370	4.2137e-01	6.1190e-02	1.3574e-01	-6.3197e-02	6.9463e+02
371	6.4866e-01	9.5584e-02	2.8916e-01	4.5758e-02	8.6164e+02
372	4.6422e-01	1.1640e-01	2.2853e-01	8.9415e-04	2.4269e+02
373	7.7615e-01	1.1137e-01	3.6513e-01	-4.5779e-02	5.7209e+02
374	3.9234e-01	8.6181e-02	1.9228e-01	-2.3355e-02	4.5197e+02
375	8.9782e-01	1.3435e-01	4.7293e-01	-5.6468e-02	0.0000e+00
376	1.0565e+00	1.2299e-01	5.6460e-01	4.3485e-02	0.0000e+00
377	6.8304e-01	1.1442e-01	2.9840e-01	-5.7910e-02	2.1262e+02
378	6.3900e-01	1.0668e-01	3.3190e-01	2.0740e-02	4.0082e+02
379	5.8507e-01	7.9309e-02	2.4180e-01	-4.4958e-02	8.0850e+02
380	5.8167e-01	8.6449e-02	2.0556e-01	-8.9155e-03	1.1874e+03
381	4.9741e-01	1.0214e-01	1.6902e-01	5.3603e-02	2.4927e+02
382	9.0653e-01	1.0186e-01	3.9925e-01	-5.5362e-02	4.3445e+02
383	8.8569e-01	9.8971e-02	3.9486e-01	-1.0595e-01	6.3888e+02
384	1.6808e-01	1.0592e-01	1.3892e-01	-3.2098e-02	2.8915e+02
385	1.9153e-02	1.0398e-02	3.9841e-02	6.9248e-02	1.0280e+03
386	-7.7846e-05	4.3373e-02	2.0602e-02	-7.5432e-02	8.6405e+02
387	1.9295e-01	9.5764e-02	1.6280e-01	-1.0844e-01	4.0291e+02
388	3.9155e-02	8.0057e-02	2.2033e-02	-9.7592e-02	3.9881e+02
389	1.6936e-01	1.0319e-01	1.7563e-01	2.7926e-02	3.5243e+02
390	7.4012e-02	9.6921e-02	6.5847e-02	1.9590e-02	3.7173e+02
391	4.9324e-01	1.3002e-01	3.3143e-01	-3.4309e-02	6.2775e+01
392	1.2007e-01	1.2517e-01	1.6268e-01	2.2117e-02	0.0000e+00
393	1.2197e-01	1.1011e-01	1.2170e-01	-3.4879e-02	3.6317e+02
394	3.8492e-02	9.1468e-02	9.1152e-03	-9.9048e-03	2.9235e+02
395	2.0702e-01	1.2380e-01	1.9092e-01	-6.6017e-02	9.7932e+01
396	1.0822e-01	1.0878e-01	1.3360e-01	-5.1036e-02	2.4205e+02
397	5.0654e-02	2.7600e-02	-4.4282e-02	4.5874e-02	8.9751e+02
398	1.6955e-01	1.2672e-01	2.1012e-01	-5.5830e-02	5.8315e+01
399	1.0702e-01	3.0532e-02	1.7358e-02	6.4701e-03	9.6508e+02
400	3.0714e-02	7.4153e-02	-3.6062e-02	7.1317e-02	4.9000e+02
401	3.2206e-01	5.5135e-02	1.4448e-01	-9.0479e-02	9.2270e+02
402	9.9846e-02	1.0738e-01	9.3378e-02	-2.8583e-02	3.2020e+02
403	4.5553e-02	1.0734e-01	-4.7157e-02	-4.0662e-02	2.2789e+02
404	4.6891e-01	1.2977e-01	2.8012e-01	-5.2124e-02	-2.5674e+01
405	1.8562e-01	1.0113e-01	2.1017e-01	-1.0729e-01	3.9252e+02
406	6.1844e-02	6.1611e-02	-3.5927e-03	-1.0189e-02	6.6465e+02
407	2.7457e-01	1.0938e-01	2.8556e-01	-1.6755e-02	3.5489e+02
408	4.3158e-01	9.4185e-02	2.1626e-01	-5.5742e-02	3.9435e+02
409	8.1135e-02	1.0642e-01	6.0582e-02	2.1978e-02	2.1015e+02
410	3.4216e-01	1.1873e-01	3.4454e-01	-4.9496e-02	1.2340e+02
411	5.2230e-01	1.1553e-01	3.5313e-01	-7.9634e-02	4.7685e+02
412	4.9891e-02	4.9798e-02	-1.2083e-02	1.1263e-02	6.7717e+02
413	1.6627e-01	8.6870e-02	1.2218e-01	-8.9789e-02	5.4837e+02
414	8.3883e-02	7.1991e-02	1.2642e-02	5.5564e-03	5.5583e+02
415	5.0617e-01	1.2909e-01	3.3072e-01	-4.3452e-02	-3.6361e+01
416	1.8947e-01	9.9219e-02	1.0760e-01	6.0992e-02	3.1773e+02
417	4.4935e-01	8.3155e-02	1.1742e-01	-9.0420e-02	5.0279e+02
418	1.3368e-01	6.4966e-02	2.1717e-02	-2.9324e-04	7.1027e+02
419	1.5183e-01	7.8618e-02	6.4750e-02	-3.1677e-03	5.3102e+02
420	3.0080e-01	9.2750e-02	2.1405e-01	-6.5848e-02	4.5560e+02
421	2.2862e-01	7.1095e-02	4.7295e-02	-1.8981e-02	7.0805e+02
422	2.2237e-01	1.0475e-01	1.6306e-01	-1.0377e-01	3.3048e+02
423	2.4055e-01	6.9032e-02	9.8170e-02	-2.8406e-02	7.1398e+02
424	2.4293e-01	5.1742e-02	5.9979e-02	-2.1067e-02	9.7173e+02
425	3.2389e-01	2.3680e-02	1.0067e-01	-1.6082e-02	1.2896e+03
426	1.8254e-01	7.1672e-02	6.2212e-02	-4.6918e-03	6.2713e+02
427	2.0003e-01	8.5404e-02	1.3229e-01	-8.3742e-03	5.4820e+02
428	1.8026e-01	5.8410e-02	2.3810e-02	2.6522e-02	7.9739e+02
429	4.2639e-01	1.1192e-01	3.1101e-01	-4.9755e-02	1.6262e+02
430	5.7261e-01	1.2516e-01	1.3064e-01	9.9714e-02	6.9625e+03
431	2.3137e-01	5.8535e-02	3.7768e-02	-7.4790e-02	7.9403e+02
432	2.7581e-01	6.5697e-02	5.8312e-02	-1.6238e-02	7.8497e+02
433	4.4108e-01	1.0159e-01	3.0326e-01	1.8161e-02	2.9035e+02
434	3.8069e-01	5.6513e-02	1.5119e-01	-4.4336e-02	7.3625e+02
435	6.3312e-01	1.0734e-01	2.9742e-01	-1.0741e-02	2.3404e+02
436	5.0771e-01	9.9071e-02	2.1478e-01	8.2626e-02	6.6003e+02
437	4.7033e-01	9.0145e-02	1.7624e-01	-1.3153e-01	5.5221e+02
438	4.3162e-01	5.0328e-02	7.1817e-02	-9.8841e-02	7.6702e+02
439	7.6709e-01	1.2598e-01	4.2700e-01	-4.4758e-02	0.0000e+00
440	5.5489e-01	1.3244e-01	1.4934e-01	3.8682e-02	0.0000e+00
441	4.0559e-01	9.8369e-02	1.8980e-01	2.5123e-02	3.9447e+02
442	2.9813e-01	6.8930e-02	7.3422e-02	-5.3531e-02	7.2873e+02
443	4.7453e-01	7.7868e-02	1.6807e-01	-1.1464e-01	6.8832e+02
444	6.4615e-01	7.1474e-02	2.8374e-01	-7.0641e-02	9.5161e+02
445	7.8651e-01	1.1268e-01	3.6794e-01	-1.7878e-02	5.5759e+02
446	7.2009e-01	8.1140e-02	3.1731e-01	-3.1119e-02	5.7354e+02
447	7.8628e-01	1.0175e-01	3.0166e-01	-4.3010e-03	6.4525e+02
448	3.3701e-02	-1.1333e-03	7.4721e-03	4.7308e-02	1.0939e+03
449	3.1013e-02	1.9230e-02	8.4359e-02	-7.5406e-02	9.4373e+02
450	2.4606e-01	9.3579e-02	1.9510e-01	-2.7840e-02	4.5735e+02
451	1.8702e-01	1.2471e-01	2.1921e-01	-8.0828e-02	1.0816e+02
452	6.5939e-02	-3.7119e-04	4.7058e-02	5.1259e-02	1.1183e+03
453	1.1902e-01	1.2709e-01	1.7971e-01	-1.5394e-01	0.0000e+00
454	8.3115e-02	9.0487e-02	2.7697e-02	-5.9769e-02	4.2015e+02
455	2.3301e-02	3.0108e-02	2.6995e-02	3.8706e-02	8.4101e+02
456	2.2806e-01	1.2438e-01	2.5338e-01	-9.1552e-02	0.0000e+00
457	3.4729e-03	5.5589e-02	-2.9240e-02	-6.3988e-02	6.9925e+02
458	4.1277e-02	5.5829e-02	-6.2317e-02	7.5645e-02	6.6779e+02
459	1.9583e-02	2.0625e-02	-1.9802e-02	3.8824e-02	9.4136e+02
460	3.2180e-01	1.2022e-01	2.7953e-01	-8.4434e-02	6.1070e+01
461	1.6340e-01	1.1674e-01	1.5038e-01	-3.6721e-02	1.2360e+02
462	2.1628e-02	7.2072e-02	1.3195e-01	3.1379e-02	6.2351e+02
463	3.3331e-02	1.0354e-01	-1.7638e-02	-8.1790e-02	2.2424e+02
464	3.2209e-01	8.7153e-02	1.7651e-01	-6.0727e-02	5.5653e+02
465	8.7247e-02	9.2686e-02	8.3014e-02	-8.6891e-04	3.2192e+02
466	6.9747e-02	2.8428e-02	1.3470e-02	-2.2438e-02	9.2420e+02
467	1.4355e-01	9.7646e-02	6.1073e-02	-2.8532e-02	3.7407e+02
468	5.9707e-02	3.7730e-02	4.3642e-02	-2.6621e-02	8.7299e+02
469	5.7713e-02	6.6915e-02	1.9325e-02	-2.4163e-02	5.8379e+02
470	1.2021e-02	7.2651e-02	-7.5272e-02	-7.2005e-02	5.2314e+02
471	3.2249e-01	8.5109e-02	2.4301e-01	-4.5938e-02	5.7987e+02
472	9.3442e-02	7.0664e-02	3.0109e-03	-6.5230e-02	5.7765e+02
473	1.5127e-01	9.6958e-02	1.3578e-01	-5.5598e-02	4.1203e+02
474	5.4972e-02	3.2675e-02	2.1906e-02	2.2507e-02	9.2708e+02
475	5.0533e-02	1.2253e-01	3.8804e-02	-6.2234e-02	2.7217e+01
476	2.7586e-01	1.2345e-01	2.6421e-01	-6.2706e-02	4.5441e+01
477	1.8193e-01	8.4705e-02	1.1336e-01	-5.6665e-02	5.0869e+02
478	8.8505e-02	1.2036e-01	1.9787e-02	-1.6098e-02	8.0725e+01
479	2.8503e-01	1.2132e-01	3.5490e-01	-3.1866e-02	-8.1694e+00
480	2.1208e-01	7.5070e-02	1.2985e-01	1.9932e-02	6.4379e+02
481	2.9360e-01	8.7458e-02	2.3979e-01	-3.6117e-02	5.3002e+02
482	1.5688e-01	5.9556e-02	1.1845e-02	6.3938e-03	8.0015e+02
483	8.5137e-02	8.4980e-02	-1.2119e-02	3.8453e-02	4.3742e+02
484	1.4019e-01	7.1192e-02	2.9713e-02	-1.6120e-02	6.7647e+02
485	1.3029e-01	6.3945e-02	2.2608e-02	6.0350e-03	6.9422e+02
486	2.2731e-01	7.6534e-02	1.1503e-01	-9.5610e-02	6.4113e+02
487	2.2237e-01	4.5180e-02	-4.5920e-02	1.1442e-02	9.0146e+02
488	1.7181e-01	4.8660e-02	2.2728e-02	-4.3161e-02	8.6082e+02
489	2.6205e-01	3.6398e-02	2.2205e-02	-3.3113e-02	1.1047e+03
490	1.9874e-01	2.6971e-02	-9.8008e-03	-3.3012e-02	1.1019e+03
491	2.3775e-01	1.0552e-01	1.7203e-01	-3.9733e-02	3.2003e+02
492	3.0824e-01	1.0096e-01	1.9106e-01	-6.6724e-02	2.9235e+02
493	2.8442e-01	9.2718e-02	2.0665e-01	-3.6615e-02	4.8758e+02
494	1.8324e-01	1.2815e-02	-4.5883e-02	1.2307e-03	1.1359e+03
495	4.5620e-01	1.0336e-01	2.2925e-01	-8.7944e-02	3.1227e+02
496	3.3010e-01	7.3856e-02	2.2222e-01	-4.8044e-02	6.4962e+02
497	2.3406e-01	5.4835e-02	6.2149e-02	-1.8021e-02	8.6931e+02
498	3.8738e-01	1.2074e-01	2.6258e-01	-5.0649e-02	8.4685e+01
499	3.3896e-01	5.8864e-02	1.6174e-02	-7.5342e-02	8.1244e+02
500	5.4525e-01	9.8461e-02	2.0490e-01	-8.8990e-02	1.9177e+03