variables="k","x","y","vx","vy","pressure"
zone i=8064 j=1
0	3.4950e-02	1.1873e-01	2.4519e-03	-2.5588e-01	0.0000e+00
1	3.9030e-02	1.2017e-01	-3.7770e-01	1.4872e-01	0.0000e+00
2	2.9616e-01	9.3407e-02	2.9828e-01	4.2450e-03	2.2316e+03
3	3.3202e-01	5.9586e-02	1.7676e-01	-2.0669e-01	1.3117e+03
4	1.4208e-01	9.0366e-02	8.8191e-02	-1.0645e-01	1.0012e+02
5	3.0217e-01	8.6435e-02	1.5580e-01	1.7052e-01	-1.0597e+03
6	4.8331e-01	1.1583e-01	2.4631e-01	-4.8545e-02	1.4956e+02
7	5.1610e-01	1.1414e-01	2.9852e-01	-4.7781e-03	1.6880e+02
8	-5.5570e-04	8.3149e-02	3.4452e-02	3.6156e-02	1.4747e+02
9	3.7884e-01	8.8744e-02	2.2837e-03	-8.0784e-02	1.2730e+01
10	2.7806e-01	7.2958e-02	1.0616e-01	4.5199e-02	8.9317e+02
11	3.0686e-01	1.1495e-01	2.2009e-01	-2.4733e-01	0.0000e+00
12	4.7716e-01	1.1692e-01	1.8541e-01	-2.5831e-02	0.0000e+00
13	7.4820e-01	1.1839e-01	2.2640e-01	5.6498e-02	0.0000e+00
14	3.3139e-01	8.2528e-02	3.1384e-01	7.9096e-02	1.0402e+03
15	5.1105e-01	1.1268e-01	2.8871e-01	-2.1569e-02	1.5476e+02
16	6.2417e-01	1.0033e-01	6.5489e-02	1.6217e-01	-2.0236e+02
17	6.0819e-01	5.2425e-02	1.6324e-01	-1.1407e-01	3.8216e+02
18	6.7325e-01	1.2122e-01	2.9334e-01	-1.0884e-01	0.0000e+00
19	1.3647e-01	1.1888e-01	2.3655e-01	-1.5715e-01	0.0000e+00
20	6.1158e-01	8.4885e-02	1.7813e-01	1.4569e-03	-1.7192e+02
21	8.1531e-02	1.2739e-01	2.7910e-02	1.6997e-02	0.0000e+00
22	3.1363e-01	8.0029e-02	3.2003e-02	1.4582e-01	3.1786e+02
23	4.9687e-01	9.7619e-02	1.7116e-01	3.4584e-04	4.3191e+02
24	7.3743e-01	1.1731e-01	4.9564e-01	-5.2006e-02	0.0000e+00
25	-5.6903e-05	9.7005e-02	9.4529e-02	-1.5242e-02	9.9517e+01
26	2.1314e-01	1.1526e-01	1.2439e-01	3.1651e-02	1.8596e+02
27	6.2769e-01	1.2620e-01	3.6352e-01	-6.4859e-02	0.0000e+00
28	7.7973e-01	1.1107e-01	1.0001e-01	-2.4097e-01	2.0006e+03
29	7.2225e-01	9.1097e-02	1.4106e-01	-2.8686e-02	7.0246e+01
30	-2.2259e-04	1.0820e-01	3.7231e-01	-3.4936e-02	0.0000e+00
31	2.7745e-01	4.8317e-02	6.4930e-02	-1.1961e-02	1.2508e+03
32	8.4798e-01	1.1135e-01	3.0984e-01	6.0597e-01	-3.3158e+03
33	6.5958e-01	9.3868e-02	-3.6565e-02	8.7011e-02	-3.5494e+03
34	7.7101e-01	9.0842e-02	2.8720e-01	3.9364e-01	-3.2571e+03
35	7.9054e-01	7.2219e-02	3.1027e-01	-1.2201e-01	1.1725e+02
36	8.1617e-01	1.2391e-01	4.1319e-01	2.5761e-01	-6.2404e+03
37	6.5289e-01	1.0338e-01	6.4602e-02	2.6923e-01	-2.9213e+03
38	7.4021e-01	6.1899e-02	1.0681e-01	-3.5653e-02	7.3045e+02
39	1.0279e+00	9.2147e-02	3.8124e-01	1.8491e-01	1.6813e+03
40	9.9336e-01	1.2037e-01	8.7451e-01	-1.5150e-01	1.4820e+04
41	5.3405e-01	9.4872e-02	1.0633e-01	4.1062e-02	4.1533e+02
42	4.0829e-01	8.2482e-02	3.0390e-01	1.8530e-01	-3.6204e+03
43	7.2424e-01	8.1506e-02	8.8892e-02	-4.3856e-02	7.4223e+02
44	7.3141e-01	1.1005e-01	-5.1043e-02	-5.7789e-02	0.0000e+00
45	8.3891e-01	1.0629e-01	-3.5278e-02	3.3645e-01	-8.3583e+02
46	5.5367e-01	9.1361e-02	1.6463e-01	1.3475e-01	6.5098e+02
47	8.6267e-01	1.3704e-01	1.2487e-01	2.0021e-01	0.0000e+00
48	8.6179e-01	1.2737e-01	2.7903e-01	-3.2715e-03	-3.1920e+03
49	1.0355e+00	1.2312e-01	1.3090e-01	5.4756e-01	0.0000e+00
50	1.0581e+00	1.3395e-01	1.0136e-01	3.2866e-01	0.0000e+00
51	7.5337e-01	8.3528e-02	-3.1308e-02	1.0698e-02	8.3521e+02
52	4.8472e-01	5.0893e-02	1.0524e-01	-7.1602e-02	9.7153e+02
53	1.1189e+00	1.3827e-01	-1.4607e-01	1.7759e-01	0.0000e+00
54	7.5603e-01	6.9959e-02	1.5349e-01	-1.0845e-01	6.3392e+02
55	8.7927e-01	8.1140e-02	3.1705e-01	3.8798e-02	4.8345e+03
56	4.0568e-01	2.9541e-02	7.5530e-02	-9.5616e-02	1.4982e+03
57	9.5900e-01	1.0823e-01	5.3222e-01	1.5315e-01	3.4608e+03
58	9.9684e-01	6.5264e-02	1.5628e-01	-2.9466e-02	2.4208e+03
59	4.3503e-01	6.9299e-02	1.2189e-01	5.7682e-02	2.2734e+02
60	1.1172e+00	1.3482e-01	-1.6559e-01	6.6926e-01	0.0000e+00
61	5.5094e-01	1.1346e-01	2.1948e-01	8.1483e-02	-7.6266e+01
62	1.0639e+00	1.3548e-01	3.7586e-01	8.2755e-03	0.0000e+00
63	1.0611e+00	3.1053e-02	2.1556e-01	-1.9747e-02	3.0363e+03
64	2.2307e-02	-2.0304e-03	1.2570e-01	8.6542e-03	8.3406e+02
65	-1.4031e-03	9.2847e-03	-1.1218e-01	-2.6775e-02	8.0174e+02
66	8.9653e-03	-1.2516e-03	3.1884e-02	1.6503e-01	4.2909e+02
67	3.4522e-01	1.1341e-01	3.2808e-01	1.5426e-02	4.6610e+02
68	5.5353e-02	1.2066e-01	-8.0775e-02	-4.6547e-02	0.0000e+00
69	2.6736e-01	6.9823e-02	1.1337e-02	-7.8979e-02	1.1037e+03
70	4.4677e-01	1.1852e-01	1.3563e-01	-6.7922e-02	5.4049e+02
71	3.4867e-01	8.9891e-02	3.3367e-01	-9.2330e-02	7.7071e+02
72	4.9240e-01	1.1264e-01	2.2923e-01	-3.5937e-02	2.2263e+02
73	3.2127e-02	7.7504e-02	-6.6671e-03	-1.8170e-01	3.4014e+02
74	4.1070e-01	1.1935e-01	-6.5141e-02	-2.5442e-02	0.0000e+00
75	4.6298e-01	1.1864e-01	2.4201e-01	4.8799e-02	0.0000e+00
76	3.9730e-01	8.8168e-02	2.1761e-01	2.2482e-01	-4.6085e+03
77	4.1090e-01	1.1855e-01	2.8238e-01	5.4569e-02	0.0000e+00
78	5.1998e-01	1.1167e-01	2.4138e-01	4.5372e-02	1.4169e+02
79	4.7260e-01	1.1674e-01	1.7649e-01	-4.8400e-02	0.0000e+00
80	2.2067e-01	1.1499e-01	9.6721e-02	-4.2651e-02	4.2938e+02
81	3.4095e-01	9.4750e-02	1.2209e-01	-9.3509e-02	7.5736e+02
82	5.3718e-01	1.1481e-01	2.5357e-01	4.0869e-02	2.8512e+02
83	5.9597e-01	9.3937e-02	1.2653e-01	-8.7400e-02	1.3759e+03
84	4.9380e-01	5.9757e-02	8.1949e-02	1.0339e-02	7.5756e+02
85	7.3890e-01	9.0964e-02	3.1469e-01	-2.5673e-03	6.2632e+01
86	7.1763e-01	6.2006e-02	1.5626e-01	1.0979e-01	-8.0162e+01
87	3.7527e-01	8.6542e-02	1.6494e-01	2.5461e-02	1.9450e+02
88	6.2743e-01	6.4858e-02	4.6368e-02	-2.1979e-02	2.6275e+02
89	7.7146e-01	1.0244e-01	3.0044e-01	2.1302e-01	-4.1789e+03
90	8.0671e-01	8.3289e-02	-2.2971e-02	9.6923e-02	2.7423e+03
91	4.2552e-01	8.0815e-02	1.7744e-01	7.7173e-02	9.2185e+02
92	6.7355e-01	1.2235e-01	1.9640e-01	-1.4007e-01	0.0000e+00
93	6.4814e-01	1.1900e-01	1.0372e-01	-1.3152e-01	1.6689e+03
94	5.8604e-01	1.1497e-01	1.1165e-01	-9.6710e-02	0.0000e+00
95	1.9647e-01	3.4112e-02	5.8845e-02	6.4005e-02	9.0245e+02
96	7.7338e-01	1.2581e-01	3.6303e-01	2.2975e-01	7.0021e+03
97	7.8499e-01	1.3286e-01	-2.0220e-01	7.4553e-01	0.0000e+00
98	6.0533e-01	9.4179e-02	1.2280e-01	2.4056e-01	-6.0559e+02
99	8.7005e-01	1.3094e-01	7.6528e-02	2.5025e-01	0.0000e+00
100	7.9385e-01	1.0652e-01	-1.2158e-01	-4.3945e-01	4.1519e+03
101	3.8397e-01	9.7702e-02	9.8218e-02	2.2571e-01	-5.0178e+02
102	8.0896e-01	1.0853e-01	4.2348e-01	4.4448e-02	5.5675e+02
103	8.7408e-01	1.2831e-01	4.9007e-02	3.5445e-01	0.0000e+00
104	8.2751e-01	1.3302e-01	1.8527e-01	3.1504e-01	0.0000e+00
105	9.5104e-01	1.2354e-01	6.5850e-01	2.2302e-01	-3.9648e+03
106	7.0367e-01	6.1708e-02	3.3174e-01	2.6521e-01	-1.8484e+03
107	8.2839e-01	5.0918e-02	2.6311e-01	-8.6225e-02	3.1553e+03
108	8.6710e-01	1.0203e-01	3.1758e-01	4.6158e-01	-4.1309e+03
109	7.4263e-01	7.9512e-02	2.6692e-02	-1.4312e-01	7.7888e+02
110	7.8655e-01	9.8769e-02	2.6633e-01	1.4421e-01	-2.5025e+03
111	8.6871e-01	5.6047e-02	1.5568e-01	-7.6709e-02	4.1984e+03
112	9.0887e-01	1.2445e-01	2.7719e-01	1.8132e-01	0.0000e+00
113	6.3396e-01	6.6807e-02	5.9799e-02	1.4045e-01	-5.8248e+02
114	9.7498e-01	1.2481e-01	2.4087e-01	3.3077e-01	5.1679e+03
115	6.8420e-01	6.3829e-02	1.9103e-01	1.8300e-01	2.2651e+02
116	9.1210e-01	1.1741e-01	-1.0582e-01	-2.0055e-01	-2.3635e+03
117	9.4535e-01	1.0535e-01	6.8029e-01	3.9292e-02	2.6753e+03
118	1.0169e+00	8.2885e-02	2.3436e-01	2.6972e-01	2.6106e+03
119	1.1202e+00	9.5378e-02	1.4401e-01	3.7358e-01	-1.1198e+03
120	9.5593e-01	6.0226e-02	4.8472e-01	1.5604e-01	3.0350e+03
121	9.8712e-01	1.2796e-01	4.7006e-01	3.8646e-01	0.0000e+00
122	1.0444e+00	1.2580e-01	6.5012e-01	3.3893e-01	0.0000e+00
123	9.3581e-01	1.1761e-01	2.1614e-01	1.8997e-01	2.9765e+03
124	5.3352e-01	7.7904e-02	4.2551e-02	9.0896e-02	7.3998e+02
125	1.2537e+00	9.6891e-02	2.8266e-01	-4.5610e-01	8.8550e+03
126	8.0553e-01	9.2134e-02	9.9331e-02	1.7146e-01	1.9756e+03
127	5.6900e-01	4.4376e-02	8.7112e-03	9.6832e-02	1.0311e+03
128	1.7530e-01	1.0427e-01	-1.1418e-01	-4.6973e-02	3.8030e+02
129	-3.7648e-04	6.4890e-02	1.0769e-01	2.8558e-01	-5.1637e+02
130	2.4616e-01	7.6226e-02	-2.3207e-02	-7.0557e-02	9.8876e+02
131	4.9194e-02	1.1833e-01	8.0497e-02	-2.7505e-01	0.0000e+00
132	1.6385e-02	5.9961e-02	2.3616e-01	6.5096e-02	-6.4317e+02
133	2.5918e-01	5.8092e-02	1.5539e-02	-6.6225e-02	1.2488e+03
134	4.4280e-01	1.1059e-01	2.0611e-01	-2.2977e-02	1.5120e+02
135	1.8600e-01	1.1219e-01	-1.9728e-02	-9.3820e-02	2.6049e+02
136	2.4971e-01	4.1827e-02	-3.1724e-02	-1.4508e-02	1.4399e+03
137	4.6673e-01	1.1392e-01	2.0051e-01	4.1845e-02	1.7810e+02
138	4.2085e-01	9.0150e-02	1.5630e-02	-4.9855e-02	1.5271e+03
139	3.4666e-01	1.1354e-01	3.7051e-01	-4.6792e-03	5.4210e+02
140	3.2180e-01	8.5163e-02	1.9662e-01	1.6049e-02	6.1091e+02
141	3.9088e-01	7.6526e-02	6.4050e-02	9.1909e-02	1.4465e+03
142	4.0523e-01	1.2069e-01	-3.5459e-02	1.3697e-02	0.0000e+00
143	3.1975e-01	4.6990e-02	-8.5163e-02	-8.6321e-02	1.4096e+03
144	4.2418e-01	1.0900e-01	8.6413e-02	-1.7877e-01	5.3421e+02
145	2.1559e-01	7.4152e-02	2.7431e-02	-1.9029e-02	9.0628e+02
146	7.1586e-01	1.5227e-01	2.6876e-01	4.7165e-02	0.0000e+00
147	3.1469e-01	3.5353e-02	-1.2569e-02	-3.6329e-02	1.5572e+03
148	7.6984e-01	6.9349e-02	2.2350e-01	-2.2967e-01	2.6391e+03
149	3.4123e-01	7.9324e-02	2.9086e-01	-1.1926e-01	1.0724e+03
150	4.8551e-01	5.1063e-02	5.1535e-02	1.7249e-02	9.6356e+02
151	4.4495e-01	8.6236e-02	2.0944e-01	5.5378e-02	2.3016e+01
152	5.8351e-01	7.1146e-02	2.4938e-01	5.0544e-02	-1.2687e+03
153	5.6282e-01	1.0123e-01	2.9901e-01	-4.3862e-03	3.8706e+02
154	5.2345e-01	9.0320e-02	2.7615e-01	-9.0257e-02	5.7328e+02
155	6.2907e-01	1.0814e-01	-6.6515e-02	1.0761e-01	-1.4824e+01
156	5.8414e-01	1.1417e-01	1.4585e-01	-1.6219e-01	0.0000e+00
157	6.0362e-01	8.4025e-02	1.2074e-01	3.6610e-02	5.3091e+02
158	7.6022e-01	1.1874e-01	2.1106e-01	1.8475e-02	0.0000e+00
159	2.6765e-01	7.9032e-02	8.1589e-02	-2.3518e-01	5.9142e+02
160	4.9944e-01	4.8824e-02	1.1120e-01	-6.0972e-02	9.5396e+02
161	8.2067e-01	9.1181e-02	-2.3432e-02	-7.5154e-02	-1.6212e+03
162	8.0321e-01	1.1701e-01	-1.8667e-01	1.0427e-01	2.6594e+03
163	4.6645e-01	9.2842e-02	1.3450e-01	-4.4302e-03	2.3715e+02
164	4.3071e-01	1.1243e-01	5.7755e-02	-6.4055e-02	-7.2251e+02
165	9.4461e-01	1.2500e-01	5.0842e-01	4.2422e-01	0.0000e+00
166	1.0095e+00	1.2849e-01	6.4121e-01	6.6044e-02	0.0000e+00
167	9.5789e-01	1.2637e-01	5.3607e-01	1.4808e-01	-1.8858e+02
168	6.7839e-01	1.0680e-01	-1.8903e-01	8.6838e-02	8.4110e+03
169	9.1037e-01	1.2620e-01	-3.2883e-02	4.4889e-01	0.0000e+00
170	9.9536e-01	1.2779e-01	6.4550e-01	3.0038e-01	0.0000e+00
171	6.2591e-01	1.1721e-01	-3.1480e-02	8.0474e-02	0.0000e+00
172	7.4810e-01	9.4359e-02	-6.1487e-03	-5.2948e-02	5.0973e+02
173	4.6724e-01	8.6210e-02	1.8547e-01	-2.7287e-02	3.3434e+02
174	1.0348e+00	9.2665e-02	3.0579e-01	3.7151e-01	1.8711e+03
175	1.0268e+00	1.1361e-01	-1.0647e-01	1.5826e-01	8.1814e+02
176	9.7835e-01	7.6459e-02	2.0242e-01	2.1729e-01	3.8679e+03
177	7.8135e-01	1.2338e-01	4.5683e-02	2.3302e-01	6.5715e+03
178	9.6734e-01	1.2789e-01	2.3613e-01	2.7068e-01	3.9028e+03
179	7.0954e-01	4.6892e-02	1.4253e-01	1.3933e-02	3.0691e+02
180	8.0138e-01	1.2350e-01	-1.9404e-01	4.2647e-01	0.0000e+00
181	6.2423e-01	8.8145e-02	1.0812e-01	7.2839e-02	-8.9262e+01
182	7.9880e-01	1.0527e-01	-1.4785e-01	-5.4945e-02	3.6240e+03
183	1.0386e+00	1.0812e-01	4.8467e-01	-4.2776e-02	2.2974e+03
184	8.9195e-01	1.2206e-01	-1.0199e-01	-2.5131e-01	9.4697e+03
185	9.8575e-01	1.0683e-01	4.6284e-02	-1.3095e-01	6.0374e+03
186	1.0201e+00	1.0428e-01	-5.5570e-02	6.6609e-02	1.1916e+03
187	8.3720e-01	7.5589e-02	1.3532e-01	-8.3461e-02	2.7011e+03
188	9.8579e-01	9.9871e-02	1.0503e-03	2.9760e-02	3.0078e+03
189	8.7134e-01	7.4823e-02	1.8751e-01	-1.0975e-01	4.9586e+03
190	4.1543e-01	2.7865e-02	-5.3888e-02	1.5951e-02	1.1632e+03
191	5.9316e-01	7.3977e-02	1.9177e-01	3.6644e-02	-3.1816e+02
192	2.7071e-01	1.0084e-01	1.7194e-01	-8.5227e-02	2.8507e+02
193	4.7635e-02	1.0417e-01	-1.6884e-01	-5.7526e-02	2.6862e+01
194	8.0522e-02	1.1688e-01	1.2199e-01	-2.6736e-01	-2.7173e+02
195	3.3586e-01	5.8223e-02	1.1596e-01	-6.8867e-02	1.3551e+03
196	-5.9628e-04	3.4401e-02	2.1421e-01	-1.7356e-01	5.9897e+02
197	1.1504e-01	1.0795e-01	-2.5511e-02	-1.4411e-01	-9.3178e+01
198	2.3337e-01	1.1589e-01	2.0642e-01	-3.7257e-02	9.0412e+01
199	5.1902e-01	6.1332e-02	1.3686e-01	1.6765e-02	9.1843e+02
200	2.0062e-01	1.1583e-01	3.7839e-02	-1.5303e-01	0.0000e+00
201	1.4626e-01	8.2556e-02	6.9597e-02	6.2472e-02	3.6730e+02
202	4.0748e-01	9.2754e-02	1.8933e-01	5.6716e-02	-1.8865e+03
203	2.0511e-02	8.2363e-02	-3.7064e-02	-4.7352e-02	2.1976e+02
204	3.1978e-01	1.0047e-01	8.9822e-02	1.1975e-01	9.4125e+02
205	2.2753e-01	8.0508e-02	-1.6580e-02	-6.8629e-02	5.7673e+02
206	3.9686e-01	1.0359e-01	2.8363e-01	-1.1414e-01	2.3298e+03
207	3.8647e-01	5.7319e-02	1.4914e-01	-9.5563e-02	9.2759e+02
208	5.6382e-01	1.1325e-01	2.9821e-01	-7.8204e-02	3.4851e+02
209	1.6175e-01	1.1916e-01	-8.4859e-02	-3.0659e-01	0.0000e+00
210	5.9053e-01	1.1665e-01	1.4294e-01	2.0126e-02	8.0288e+02
211	3.3847e-01	1.1514e-01	1.7664e-01	-4.7671e-02	-1.6030e+02
212	3.5206e-01	1.2448e-01	5.5267e-02	8.9271e-02	0.0000e+00
213	1.7869e-01	1.3272e-01	5.1044e-01	-9.1969e-02	0.0000e+00
214	6.2050e-01	9.0656e-02	1.5049e-01	9.3857e-02	-3.5794e+02
215	4.5008e-01	6.3600e-02	1.0153e-01	2.0983e-02	5.4907e+02
216	4.7513e-01	1.0194e-01	1.9675e-01	1.8399e-02	2.5551e+02
217	2.0202e-01	4.0150e-02	1.4928e-03	-6.6094e-02	8.7506e+02
218	6.3798e-01	1.1492e-01	-3.3989e-03	1.8148e-01	7.9240e+02
219	3.4997e-01	1.2164e-01	1.1335e-01	7.0983e-02	0.0000e+00
220	3.6840e-01	1.1273e-01	5.8044e-02	-1.0070e-01	0.0000e+00
221	6.0582e-01	1.2095e-01	4.9475e-01	1.1618e-01	0.0000e+00
222	2.1101e-01	8.3990e-02	2.9849e-02	5.1249e-02	6.1398e+02
223	2.6784e-01	9.9609e-02	2.2335e-01	-9.4654e-02	2.2518e+02
224	5.1702e-01	8.4304e-02	1.6166e-01	-4.0455e-02	7.4609e+02
225	7.5581e-01	1.1076e-01	2.6212e-01	4.5943e-02	4.3085e+02
226	2.7376e-01	8.0138e-02	6.2946e-02	4.8181e-02	5.5649e+02
227	7.7670e-01	1.1935e-01	4.4715e-01	-1.0457e-01	5.1420e+03
228	5.9606e-01	5.5607e-02	4.1158e-02	-5.5447e-02	6.6120e+02
229	9.2850e-01	1.3138e-01	2.6648e-01	4.6353e-01	0.0000e+00
230	3.7602e-01	7.0094e-02	3.2857e-03	2.7025e-03	6.2085e+02
231	4.3949e-01	9.9282e-02	1.8680e-01	1.2840e-01	2.2157e+01
232	8.3787e-01	1.1475e-01	1.9147e-01	7.4192e-02	-1.9929e+03
233	4.3795e-01	7.1318e-02	9.0314e-02	9.0188e-02	2.2441e+02
234	6.7009e-01	1.3073e-01	2.8908e-01	-1.0625e-01	0.0000e+00
235	6.9771e-01	1.0210e-01	2.0300e-01	1.5540e-01	1.6968e+03
236	8.7269e-01	1.5016e-01	7.2673e-01	3.3321e-01	0.0000e+00
237	4.7789e-01	9.7914e-02	1.9592e-01	9.9064e-02	2.8089e+02
238	2.6539e-01	9.8293e-03	4.8399e-02	-6.1657e-02	1.4346e+03
239	6.8176e-01	7.8406e-02	3.7081e-01	1.2865e-01	1.4357e+01
240	9.7925e-01	1.2418e-01	4.2834e-01	2.7428e-01	0.0000e+00
241	1.0312e+00	1.1809e-01	2.3141e-02	4.3543e-01	1.9655e+03
242	7.5725e-01	5.6942e-02	1.7375e-01	-1.5269e-02	9.9217e+02
243	6.5601e-01	1.0675e-01	9.4926e-02	2.9545e-01	-2.2768e+03
244	4.1300e-01	1.0724e-01	-1.9333e-01	-1.5118e-01	2.7532e+03
245	5.8320e-01	1.0080e-01	-7.8906e-03	-1.9802e-01	1.6834e+03
246	4.1515e-01	6.4497e-02	2.3866e-01	1.8285e-02	1.1617e+02
247	5.2656e-01	2.9078e-02	6.1438e-02	-7.3525e-02	1.2080e+03
248	8.2043e-01	8.6036e-02	1.3299e-01	5.2942e-02	-2.4082e+02
249	3.9737e-01	1.8424e-02	1.9827e-02	-2.6873e-03	1.1543e+03
250	4.6006e-01	1.0036e-01	2.4291e-01	8.2883e-02	5.6918e+02
251	5.5600e-01	8.3813e-02	3.8259e-02	2.0873e-01	1.0975e+03
252	6.4183e-01	1.1074e-01	1.3444e-01	1.3310e-01	1.7430e+02
253	2.5162e-01	4.7734e-02	-3.3958e-02	7.6357e-02	1.3340e+03
254	7.5538e-01	7.4077e-02	1.8178e-01	-6.0497e-02	6.9774e+02
255	1.1559e+00	9.8726e-02	-1.7607e-01	2.0014e-01	2.2631e+03
256	3.8038e-01	1.2957e-01	4.9089e-01	-6.7223e-02	0.0000e+00
257	2.4963e-02	4.2689e-02	1.0145e-01	1.2741e-01	4.7134e+00
258	1.3179e-02	1.5379e-02	8.3304e-02	-1.2304e-01	6.8904e+02
259	3.4548e-01	9.2198e-02	1.4022e-02	1.0189e-01	9.1789e+02
260	1.8292e-01	1.0504e-01	7.2816e-02	3.2448e-02	7.4821e+01
261	5.6410e-02	9.4651e-02	-1.5287e-01	-1.5097e-01	1.9653e+02
262	6.5049e-02	8.1233e-02	4.1977e-02	-9.8493e-03	2.7815e+02
263	3.0501e-01	7.4611e-02	5.7979e-02	5.5327e-02	-7.4149e+02
264	1.1741e-01	1.3602e-01	-1.2682e-01	-2.2908e-02	0.0000e+00
265	9.9379e-02	1.0421e-01	1.6187e-02	-9.4909e-02	3.8728e+02
266	2.3782e-01	7.9091e-02	3.1333e-02	1.9481e-02	7.8054e+02
267	9.9394e-02	3.1283e-02	1.5288e-01	-4.9045e-02	1.8745e+02
268	2.9690e-01	1.1844e-01	2.0060e-01	1.7670e-01	0.0000e+00
269	3.1051e-01	1.2294e-01	1.7474e-01	-1.9931e-01	0.0000e+00
270	1.2314e-01	9.9568e-02	9.9267e-04	2.9046e-02	4.1946e+02
271	3.1428e-01	9.9004e-02	-3.8048e-02	1.6295e-01	1.1742e+03
272	2.0262e-01	1.0967e-01	1.1373e-01	1.0065e-02	1.6471e+02
273	8.6176e-02	9.0699e-02	9.5982e-02	-2.6899e-02	2.7129e+02
274	4.8952e-01	8.1842e-02	1.3655e-01	-3.0192e-02	6.8549e+02
275	4.3447e-01	8.2596e-02	1.6253e-01	3.0032e-02	2.7324e+02
276	3.5972e-01	5.8031e-02	1.6171e-01	-8.1024e-03	1.1547e+03
277	6.2940e-01	1.0925e-01	-3.2128e-02	1.4317e-01	1.8254e+02
278	4.8352e-01	8.6191e-02	1.8026e-01	6.1782e-02	4.8956e+02
279	5.7622e-01	1.1855e-01	3.3074e-01	8.9747e-02	0.0000e+00
280	6.0947e-01	7.1610e-02	1.1762e-01	-6.1758e-02	6.5003e+02
281	3.7037e-02	9.0110e-02	4.5183e-02	-1.0254e-01	-8.9181e+01
282	6.6698e-01	1.0800e-01	1.3735e-02	-1.0704e-01	1.4147e+03
283	4.4538e-01	7.4497e-02	1.1646e-01	1.0121e-01	2.2890e+02
284	3.3374e-01	5.0552e-02	8.2652e-03	-9.9541e-02	1.5150e+03
285	5.0246e-01	9.0006e-02	1.5187e-01	-4.6662e-02	4.6837e+02
286	2.5381e-01	1.1723e-01	2.3073e-01	-7.8469e-02	0.0000e+00
287	3.5183e-01	1.0234e-01	2.0316e-01	1.3662e-01	8.1799e+02
288	4.8085e-01	8.8484e-02	2.1758e-01	-3.9091e-02	3.8334e+02
289	8.2042e-02	7.1529e-02	-3.2562e-02	-7.1698e-02	2.1747e+02
290	5.5877e-01	7.2996e-02	9.0621e-02	-4.5676e-04	2.6136e+03
291	2.6698e-01	8.4833e-02	9.3569e-02	-3.7223e-02	5.8109e+02
292	6.5366e-01	1.2871e-01	-6.7586e-02	-5.5588e-02	0.0000e+00
293	5.4518e-01	1.1537e-01	2.7549e-01	5.1994e-02	1.1669e+02
294	3.4748e-01	3.8116e-02	1.1581e-01	-1.5938e-02	1.5574e+03
295	3.2300e-01	7.3057e-02	1.6644e-01	-1.9863e-02	2.6915e+03
296	4.5240e-01	1.0120e-01	1.7429e-01	3.2693e-02	7.4953e+02
297	5.3875e-01	1.1383e-01	2.2559e-01	3.8982e-02	2.5560e+02
298	7.2831e-01	1.0807e-01	2.5922e-01	-3.3319e-04	1.5108e+02
299	2.4194e-01	8.9626e-02	1.0529e-01	-3.2049e-02	7.0811e+02
300	2.2038e-01	4.8901e-02	5.1514e-02	-3.7213e-02	1.3299e+03
301	7.4760e-01	1.2198e-01	1.7123e-01	-7.1078e-02	0.0000e+00
302	8.6316e-01	1.1699e-01	1.2742e-01	5.9399e-01	-5.5827e+03
303	4.2149e-01	1.0083e-01	-1.7131e-01	-7.7615e-02	1.6514e+03
304	7.0397e-01	7.6677e-02	2.0882e-01	1.0663e-01	1.7207e+03
305	8.8066e-01	1.2595e-01	-4.9647e-03	-3.8840e-02	0.0000e+00
306	7.4818e-01	1.2407e-01	3.8352e-01	-1.2162e-01	0.0000e+00
307	9.5820e-01	1.2835e-01	4.9229e-01	1.1521e-01	3.8491e+01
308	6.3976e-01	6.9681e-02	2.0154e-01	9.4475e-02	-1.3611e+03
309	8.3404e-01	1.3603e-01	3.3951e-01	3.0020e-01	0.0000e+00
310	7.4052e-01	7.1421e-02	2.2457e-03	-2.7638e-02	9.8662e+02
311	7.5845e-01	8.6759e-02	-5.5961e-02	7.6574e-04	8.3588e+02
312	4.8010e-01	6.1961e-02	8.9375e-02	-1.1962e-01	6.5767e+02
313	4.5566e-01	8.4918e-02	1.9307e-01	8.9676e-02	3.5312e+02
314	1.0357e+00	1.1808e-01	1.4038e-01	2.4634e-01	2.9648e+03
315	1.0062e+00	8.9659e-02	2.8341e-01	2.1901e-01	2.4114e+03
316	7.8304e-01	8.4790e-02	4.7748e-01	2.1457e-01	-4.5665e+03
317	8.5597e-01	1.2374e-01	5.8159e-01	2.0589e-01	-5.7759e+03
318	1.0912e+00	7.0320e-02	-1.1689e-01	-3.0644e-02	4.0940e+03
319	1.0868e+00	8.6191e-02	-3.0507e-01	2.8575e-01	4.6536e+03
320	1.5272e-02	8.3063e-02	2.0078e-01	1.0673e-01	2.4717e+02
321	2.7311e-02	1.2033e-01	-5.0555e-02	1.0749e-01	0.0000e+00
322	5.2113e-03	4.9356e-02	-6.7344e-02	-5.4609e-02	1.0809e+03
323	2.2995e-01	8.8370e-02	1.0238e-01	-7.5884e-02	5.1379e+02
324	1.5051e-01	-2.5048e-04	3.4681e-02	-1.3848e-01	1.0033e+03
325	1.3222e-01	1.0501e-01	-2.2027e-01	-9.7247e-02	9.6043e+00
326	2.8756e-01	8.8106e-02	3.2339e-01	-5.9766e-02	2.4545e+03
327	4.0753e-01	9.8806e-02	1.7060e-01	-4.1867e-02	1.5125e+03
328	1.7583e-01	8.9230e-02	1.2693e-01	-1.4168e-01	7.8499e+01
329	6.3497e-02	1.1684e-01	-6.7937e-02	-1.0155e-01	3.1463e+02
330	2.3945e-01	1.1257e-01	1.9903e-01	-6.7088e-04	8.7766e+01
331	1.3242e-01	8.2556e-02	2.8248e-02	-7.8972e-03	2.6286e+02
332	2.8759e-01	5.9314e-02	-4.0233e-02	-4.5528e-02	1.6629e+03
333	7.5914e-02	1.1655e-01	9.8473e-02	-2.7671e-01	8.0841e+00
334	7.1414e-02	1.1040e-01	-1.6647e-01	-3.9948e-02	2.2132e+02
335	3.3231e-01	9.9032e-02	2.8402e-01	5.1188e-02	6.9208e+02
336	4.0027e-01	1.0724e-01	2.4556e-01	-7.3651e-02	3.4151e+03
337	3.6717e-01	1.0687e-01	3.3719e-01	1.4957e-01	2.4145e+02
338	1.6316e-01	9.7007e-02	-3.4020e-02	5.7088e-02	4.8954e+02
339	7.5848e-02	6.0478e-02	-1.6113e-02	-2.4068e-03	-5.2315e+02
340	4.0529e-01	7.0178e-02	1.9763e-01	6.3002e-02	4.4885e+02
341	3.7821e-01	7.1183e-02	5.9161e-02	-1.0321e-01	7.0883e+02
342	5.0126e-01	1.1168e-01	2.2825e-01	-5.0220e-02	2.2412e+02
343	6.6634e-01	1.3208e-01	1.2865e-01	-2.0569e-01	0.0000e+00
344	5.0532e-01	1.1256e-01	2.4320e-01	-4.3389e-02	1.8056e+02
345	5.1476e-01	9.9192e-02	1.9811e-01	-4.6235e-02	3.6309e+02
346	7.5831e-01	9.9558e-02	4.9217e-02	1.6552e-01	-1.0816e+03
347	5.0658e-01	7.6733e-02	1.4359e-01	-1.3460e-02	7.2466e+02
348	1.8934e-01	1.0696e-01	9.2232e-02	8.2770e-02	1.5220e+02
349	2.7224e-01	5.9922e-02	1.2812e-01	-2.6947e-02	1.4960e+03
350	9.9879e-02	6.9998e-02	-4.6292e-02	-2.8268e-01	5.5421e+02
351	3.6237e-01	6.6351e-02	1.6036e-01	-1.7610e-01	1.1710e+03
352	5.3193e-01	1.1145e-01	1.9665e-01	1.8568e-02	3.0047e+02
353	4.8713e-01	1.0422e-01	1.9772e-01	-3.8648e-02	3.4524e+02
354	5.0025e-01	9.5324e-02	2.6887e-01	1.6552e-02	4.7302e+02
355	1.9532e-01	6.6899e-02	8.6518e-02	-1.0705e-02	4.0993e+02
356	1.7624e-01	7.5938e-02	5.5683e-02	8.5449e-02	4.4341e+02
357	5.6400e-03	1.1964e-01	-1.5222e-01	1.9610e-01	0.0000e+00
358	3.2985e-01	2.9963e-02	-3.5441e-02	-8.4041e-02	1.4728e+03
359	2.3427e-01	3.1332e-02	-2.8283e-02	-4.2435e-02	1.3596e+03
360	3.6386e-01	4.5319e-02	1.1869e-01	-1.3979e-01	1.1952e+03
361	7.5166e-01	1.1885e-01	1.3132e-01	2.1304e-01	0.0000e+00
362	2.9100e-01	6.8116e-02	3.1937e-02	-1.9906e-02	7.2164e+02
363	4.6972e-01	7.4520e-02	1.9314e-01	4.9808e-02	5.6798e+02
364	3.4711e-01	7.4150e-02	1.1505e-01	-7.9774e-02	9.1256e+02
365	5.1890e-01	4.4913e-02	6.3177e-02	-2.3575e-02	1.1917e+03
366	5.5476e-01	1.1353e-01	1.5967e-01	-1.2466e-02	6.1850e+01
367	2.4165e-01	6.1687e-02	1.0457e-01	3.6784e-03	1.1208e+03
368	3.9062e-01	8.3125e-02	-4.5650e-02	3.0884e-01	-1.0960e+03
369	4.2331e-01	8.6911e-02	1.9516e-02	1.4782e-01	1.2921e+03
370	4.5268e-01	5.0162e-02	1.2450e-01	3.0601e-02	7.1879e+02
371	7.4865e-01	1.0503e-01	1.8621e-01	7.7402e-02	7.6611e+02
372	5.3829e-01	1.0125e-01	2.1496e-01	4.2300e-02	3.7886e+02
373	8.9455e-01	1.0146e-01	2.6571e-01	-2.5616e-01	3.0650e+03
374	4.3936e-01	9.1400e-02	1.1248e-01	7.2151e-02	-7.7699e+01
375	1.0469e+00	1.3512e-01	4.1487e-01	1.7177e-01	0.0000e+00
376	1.1828e+00	1.1039e-01	-6.6072e-01	2.4564e-01	3.8491e+03
377	7.7015e-01	8.1172e-02	1.3074e-01	-1.1535e-01	2.8352e+03
378	7.4279e-01	1.0152e-01	1.6969e-01	5.0262e-02	5.7211e+02
379	6.6933e-01	7.8046e-02	1.8691e-01	-1.0948e-01	4.2333e+02
380	6.3563e-01	8.7761e-02	1.8225e-01	7.0207e-02	1.1337e+03
381	5.7565e-01	1.0667e-01	4.2292e-01	-1.7701e-01	1.6272e+03
382	1.0193e+00	9.4740e-02	-5.1351e-02	3.1972e-01	1.3881e+03
383	9.6820e-01	6.8833e-02	4.5797e-01	1.6853e-01	1.6529e+03
384	2.0535e-01	9.9802e-02	1.1758e-01	2.7604e-02	4.2642e+02
385	3.2608e-02	2.6363e-02	-1.4657e-01	9.3038e-02	7.2576e+02
386	-1.3297e-04	2.4290e-02	2.0619e-02	-7.2777e-02	6.6302e+02
387	2.4121e-01	9.7343e-02	1.3595e-01	-1.6256e-02	6.4898e+02
388	3.9686e-02	6.6169e-02	-5.1760e-02	-3.3627e-02	-5.7947e+01
389	2.2531e-01	1.0073e-01	1.4059e-01	-6.6063e-02	2.5959e+02
390	8.4112e-02	1.0190e-01	-4.9403e-02	-5.5054e-02	2.6470e+02
391	5.9701e-01	1.0865e-01	-2.3630e-02	-2.5782e-01	2.0763e+03
392	1.4599e-01	1.0265e-01	4.3730e-02	-8.0259e-02	2.6685e+02
393	1.3871e-01	9.3719e-02	1.8816e-02	-8.2864e-02	-9.1303e+01
394	7.2963e-02	8.2984e-02	9.9090e-02	-3.5966e-02	4.4194e+02
395	2.5625e-01	1.1907e-01	4.2376e-02	-1.0776e-01	0.0000e+00
396	1.4249e-01	1.0436e-01	5.7148e-02	-1.2383e-01	1.5050e+02
397	5.5325e-02	4.3053e-02	8.8755e-02	1.1200e-01	-8.7782e+02
398	2.2893e-01	1.1724e-01	1.9324e-01	-3.0703e-02	2.0351e+02
399	1.0327e-01	3.8136e-02	3.4120e-02	-4.3366e-02	2.8656e+02
400	3.3463e-02	8.2461e-02	-4.0068e-02	-9.9193e-03	3.3521e+00
401	3.5770e-01	2.8735e-02	1.1213e-01	-7.5878e-02	1.4994e+03
402	1.2614e-01	9.2735e-02	-3.3526e-02	-1.5902e-01	3.6654e+02
403	5.1026e-02	8.7819e-02	-2.8625e-02	-1.1037e-01	2.2222e+02
404	5.6200e-01	1.1309e-01	2.5700e-01	-9.3557e-02	0.0000e+00
405	2.1750e-01	7.9482e-02	-1.8647e-02	-1.2166e-02	6.9066e+02
406	6.9540e-02	6.5849e-02	4.3305e-02	6.0739e-02	-5.7093e+02
407	3.5631e-01	7.3362e-02	2.3139e-01	-8.1411e-02	8.7912e+02
408	4.9484e-01	7.8454e-02	8.7051e-02	-1.6117e-02	7.4205e+02
409	1.0722e-01	1.1337e-01	2.1967e-01	5.4100e-02	-4.8702e+02
410	3.6898e-01	9.1974e-02	-8.8979e-02	-6.7049e-02	1.5379e+02
411	5.8484e-01	7.2939e-02	1.6327e-01	-1.0970e-01	-1.4698e+03
412	5.6504e-02	6.6504e-02	4.4857e-02	4.5927e-02	-1.3777e+02
413	2.0543e-01	7.5894e-02	4.5780e-02	-3.8398e-02	7.9077e+02
414	8.8335e-02	7.9884e-02	-3.8379e-02	1.1339e-02	4.0209e+02
415	5.9696e-01	9.3028e-02	7.5640e-02	-2.4936e-01	1.5767e+03
416	2.3901e-01	1.0318e-01	1.3306e-01	-7.9564e-02	3.9700e+02
417	4.8344e-01	7.3685e-02	1.1271e-01	-1.5327e-02	6.6049e+02
418	1.4311e-01	6.9080e-02	2.2754e-02	-1.0560e-02	3.8840e+02
419	1.7480e-01	8.2741e-02	1.1433e-01	4.6060e-02	2.6410e+02
420	3.3207e-01	7.3280e-02	1.2189e-01	-6.7604e-02	1.5754e+03
421	2.4124e-01	7.6531e-02	7.0248e-02	6.0973e-03	8.5493e+02
422	2.8783e-01	9.1928e-02	4.5227e-01	-2.5304e-01	3.6551e+03
423	2.6635e-01	5.5621e-02	6.5494e-02	-3.4600e-02	1.1335e+03
424	2.6400e-01	4.7205e-02	4.4205e-02	1.3056e-03	9.8113e+02
425	3.4736e-01	2.1501e-02	6.0485e-02	-3.8905e-02	1.5756e+03
426	1.9140e-01	8.2568e-02	-2.6672e-03	7.0164e-02	5.0817e+02
427	2.6304e-01	9.2983e-02	1.2956e-01	3.1144e-02	5.9403e+02
428	1.8490e-01	6.5118e-02	-3.3437e-02	-6.3865e-02	7.8453e+02
429	5.1426e-01	9.9894e-02	2.5034e-01	-4.3407e-02	3.5123e+02
430	6.5128e-01	1.2517e-01	2.2376e-01	6.7251e-02	0.0000e+00
431	2.3871e-01	4.9354e-02	-1.4293e-02	-2.7076e-03	9.8648e+02
432	2.9696e-01	8.4059e-02	7.7738e-02	2.1181e-01	1.6833e+01
433	5.3305e-01	8.3895e-02	2.3108e-01	-2.7560e-02	6.9301e+02
434	4.1779e-01	4.5445e-02	9.4921e-02	7.5625e-02	7.1473e+02
435	7.1865e-01	9.5268e-02	2.8090e-01	5.3718e-02	3.0497e+02
436	5.5821e-01	9.5599e-02	2.2595e-01	1.2612e-01	3.4552e+02
437	5.1185e-01	5.9216e-02	3.1587e-02	1.3827e-02	8.6692e+02
438	4.5627e-01	4.3829e-02	1.1864e-01	6.3828e-02	8.1238e+02
439	8.8691e-01	1.3342e-01	3.2219e-01	1.5826e-01	0.0000e+00
440	6.3384e-01	1.2564e-01	2.1858e-01	1.3613e-01	0.0000e+00
441	4.8803e-01	1.1129e-01	2.9158e-01	7.1963e-03	2.6692e+01
442	3.1388e-01	5.9271e-02	-7.2773e-02	-5.5014e-02	1.9348e+03
443	5.0937e-01	5.3142e-02	1.4848e-02	-5.2209e-02	1.0639e+03
444	7.2490e-01	4.7295e-02	2.9347e-01	-1.5043e-03	7.0377e+02
445	8.9592e-01	9.7551e-02	2.9647e-01	-2.5928e-02	1.4457e+03
446	8.0596e-01	7.2802e-02	1.1007e-01	-7.9084e-02	2.7103e+03
447	8.7341e-01	1.0286e-01	3.2628e-02	2.7843e-01	-8.9189e+03
448	3.8210e-02	-1.3142e-03	8.7578e-02	4.7130e-02	2.4235e+02
449	2.4113e-02	2.2653e-02	-1.8022e-01	1.1461e-01	8.8416e+01
450	3.0630e-01	1.0973e-01	2.2728e-01	8.6457e-02	0.0000e+00
451	2.6134e-01	1.2366e-01	2.5477e-01	-1.1146e-01	0.0000e+00
452	7.4896e-02	-4.8841e-04	1.2234e-01	5.1052e-02	3.5154e+02
453	1.0826e-01	1.1016e-01	-4.1579e-01	-1.0005e-01	-4.6791e+02
454	9.3496e-02	7.4388e-02	-8.3526e-03	-1.0632e-01	3.3711e+02
455	4.6480e-02	5.1619e-02	1.5989e-01	3.8652e-02	6.7139e+02
456	3.2075e-01	9.6471e-02	3.1582e-01	6.3263e-02	1.7657e+02
457	2.9801e-02	5.7731e-02	-9.9415e-03	6.1526e-02	4.9710e+02
458	1.9029e-02	7.0786e-02	-7.8542e-02	-2.9770e-02	3.9476e+02
459	2.5696e-02	7.9582e-03	1.1919e-02	1.2838e-01	6.7903e+02
460	3.6228e-01	1.1588e-01	8.0535e-02	1.0717e-01	0.0000e+00
461	2.0335e-01	1.1599e-01	5.9395e-02	-1.3239e-02	-2.4135e+02
462	2.4740e-02	9.1216e-02	-4.5695e-02	1.3370e-01	-4.2142e+01
463	5.3180e-02	7.8632e-02	1.0543e-01	-3.2463e-02	1.6296e+02
464	3.5884e-01	7.5836e-02	8.0118e-02	1.6222e-02	9.8334e+02
465	1.1702e-01	1.1072e-01	-5.0677e-03	-1.6502e-01	-3.9751e+01
466	7.9418e-02	3.1807e-02	-1.4681e-01	8.4169e-02	8.1438e+02
467	1.6581e-01	9.9858e-02	5.9690e-02	1.2692e-01	4.1508e+02
468	7.1054e-02	2.8144e-02	-9.5393e-02	3.3625e-02	4.2485e+02
469	6.9116e-02	7.7894e-02	4.6409e-02	1.2677e-02	3.4469e+02
470	2.2054e-02	6.7498e-02	-3.7276e-02	-6.4226e-02	6.4916e+02
471	3.7526e-01	6.5639e-02	-7.8429e-03	-1.1043e-01	8.3441e+02
472	1.0529e-01	4.9815e-02	4.2606e-02	-6.2445e-02	5.1449e+02
473	2.0405e-01	9.3192e-02	1.3344e-01	-1.4476e-03	5.3192e+02
474	6.8894e-02	4.3244e-02	-7.7684e-02	-5.9957e-02	1.9054e+03
475	1.2809e-02	1.0202e-01	-7.7977e-02	3.7887e-02	5.0339e+01
476	3.2431e-01	1.1272e-01	4.6448e-02	-9.4982e-02	2.1295e+03
477	2.1857e-01	9.7747e-02	1.8670e-01	7.3616e-02	2.7559e+02
478	1.0352e-01	1.2990e-01	2.9289e-02	-8.3886e-02	0.0000e+00
479	3.7452e-01	1.0620e-01	3.4121e-01	-6.6125e-02	3.5257e+02
480	2.5540e-01	8.6962e-02	1.7971e-01	5.9458e-02	7.9001e+02
481	3.4913e-01	6.0094e-02	3.7986e-02	-1.9757e-01	9.5841e+02
482	1.6427e-01	6.4966e-02	2.2343e-02	-1.0523e-02	6.7042e+02
483	7.8137e-02	9.6338e-02	-9.1522e-02	-6.6152e-02	-4.2281e+01
484	1.5820e-01	8.3790e-02	9.1493e-02	8.8068e-02	2.7015e+02
485	1.3428e-01	6.6893e-02	3.7755e-02	1.9392e-02	4.9475e+02
486	2.5594e-01	6.9341e-02	1.7297e-01	3.6389e-02	1.1175e+03
487	2.2142e-01	5.6384e-02	1.8911e-03	3.2482e-02	1.0148e+03
488	1.8263e-01	6.0727e-02	-8.4787e-03	-2.1492e-03	1.1603e+03
489	2.7274e-01	2.8371e-02	6.6007e-02	-1.3118e-01	1.6500e+03
490	2.0535e-01	2.3016e-02	9.2052e-03	-5.6529e-02	1.2267e+03
491	2.9952e-01	9.8174e-02	4.0410e-01	-2.1291e-01	3.1127e+03
492	3.6285e-01	9.2778e-02	1.5939e-01	6.5917e-02	6.8571e+02
493	3.4978e-01	1.1933e-01	2.9587e-01	1.2810e-01	0.0000e+00
494	1.6915e-01	1.9813e-02	-4.6698e-02	4.4349e-02	6.9822e+02
495	5.2451e-01	6.9212e-02	1.8483e-01	-8.3540e-02	1.1679e+03
496	3.7348e-01	5.4920e-02	7.3805e-02	-4.6125e-02	1.4070e+03
497	2.4441e-01	5.6565e-02	6.3689e-02	7.2850e-02	1.1986e+03
498	4.5293e-01	1.1775e-01	1.7391e-01	-8.4552e-03	0.0000e+00
499	3.5478e-01	4.7966e-02	-2.9454e-02	-9.2032e-02	1.2673e+03
500	6.0899e-01	7.3658e-02	1.6723e-01	8.8802e-03	5.9344e+02
501	2.8980e-01	6.1349e-02	-1.6954e-02	7.8785e-02	1.4041e+03