variables="k","x","y","vx","vy","pressure"
zone i=8064 j=1
0	2.3232e-02	1.0588e-01	-4.0044e-02	6.4784e-02	2.3172e+03
1	3.7122e-02	1.2567e-01	2.6105e-01	1.5007e-01	6.1452e+02
2	2.9498e-01	1.2462e-01	-1.6332e-02	-4.5819e-02	3.2304e+01
3	3.1813e-01	4.8537e-02	-9.3162e-02	-7.2707e-02	1.2454e+03
4	1.3865e-01	1.1340e-01	-1.2077e-01	2.7902e-01	2.8399e+02
5	3.1894e-01	8.7315e-02	4.3735e-02	-1.2368e-01	9.7485e+02
6	4.7169e-01	1.4613e-01	-1.3292e-01	-3.4728e-01	0.0000e+00
7	5.8099e-01	2.4256e-01	3.0432e-01	1.8706e-01	0.0000e+00
8	-5.8054e-04	9.8362e-02	3.4897e-02	-1.2432e-04	7.4749e+02
9	3.3835e-01	1.0515e-01	-1.0175e-01	-1.1720e-01	4.8603e+02
10	2.6399e-01	7.8341e-02	-1.1563e-01	-4.9189e-03	7.9371e+02
11	2.9179e-01	1.2463e-01	-1.9160e-01	-1.1783e-01	1.2006e+02
12	5.5764e-01	1.1369e-01	5.5596e-02	-9.6060e-03	5.7843e+02
13	6.8946e-01	9.5145e-02	-5.3324e-01	1.2712e-01	2.7819e+03
14	3.2321e-01	9.2458e-02	1.6030e-02	-6.6459e-02	9.3175e+02
15	4.7838e-01	1.2358e-01	-2.4426e-01	-1.2776e-01	7.9676e+02
16	5.4456e-01	9.6242e-02	-6.1318e-01	3.2262e-01	3.8203e+03
17	5.8462e-01	4.1945e-02	-6.2180e-01	2.0473e-02	3.5523e+03
18	6.3757e-01	2.2731e-01	-2.3100e-01	-7.0150e-03	0.0000e+00
19	1.4521e-01	1.2210e-01	3.2654e-03	3.4015e-01	1.1381e+02
20	6.0628e-01	1.3296e-01	-4.8778e-01	3.1654e-01	0.0000e+00
21	9.1051e-02	1.3008e-01	2.9189e-01	3.7441e-01	0.0000e+00
22	3.0185e-01	7.5812e-02	3.2774e-02	-1.8342e-01	1.3748e+03
23	5.1031e-01	1.3611e-01	-1.0679e-01	3.5500e-02	0.0000e+00
24	6.7553e-01	7.2762e-02	-4.9277e-01	-1.4952e-01	2.6335e+03
25	-7.5982e-05	1.0961e-01	9.4830e-02	-1.7514e-02	3.0563e+02
26	2.6569e-01	1.2407e-01	1.8992e-01	-9.1379e-02	1.5356e+02
27	6.6678e-01	1.3104e-01	-1.4324e-01	-4.1976e-02	4.1753e+02
28	6.9277e-01	1.4803e-01	-7.6330e-01	1.5666e-01	2.0368e+03
29	7.3776e-01	2.0919e-01	-8.6152e-01	8.7136e-01	2.1138e+03
30	-2.2700e-04	1.1830e-01	3.7199e-01	-2.7813e-02	4.2949e+02
31	2.4822e-01	4.9737e-02	-1.4289e-01	1.3062e-01	9.9549e+01
32	7.2611e-01	1.7870e-01	-1.3951e+00	6.2457e-01	1.2849e+03
33	5.8762e-01	9.3621e-02	-2.3182e-01	-3.9469e-02	2.0106e+03
34	6.9126e-01	1.9328e-01	-1.0305e+00	6.6137e-01	0.0000e+00
35	7.1952e-01	1.4103e-01	-1.1421e+00	4.3488e-01	1.7942e+03
36	7.6925e-01	2.8638e-01	-1.2277e+00	7.1163e-01	5.3107e+02
37	6.9019e-01	1.2019e-01	-2.5396e-01	1.8368e-01	2.3191e+03
38	7.1885e-01	4.6365e-02	-3.4847e-01	2.5660e-01	3.2660e+03
39	7.9710e-01	2.8349e-01	-1.4361e+00	1.1263e+00	0.0000e+00
40	7.5409e-01	2.1909e-01	-1.2564e+00	7.8195e-01	1.4479e+03
41	5.6587e-01	1.1455e-01	-1.5787e-01	-2.5045e-01	1.0884e+03
42	3.5286e-01	9.4325e-03	-2.5832e-01	-5.2595e-01	1.9822e+03
43	6.7708e-01	4.2966e-02	-3.5621e-01	7.0978e-02	3.6009e+03
44	5.9160e-01	3.0817e-01	-6.3245e-01	4.1383e-01	0.0000e+00
45	7.6361e-01	2.9729e-01	-9.9644e-01	9.1233e-01	-1.8245e+03
46	4.7147e-01	1.1761e-01	-2.6806e-01	6.0783e-02	1.5854e+02
47	7.3373e-01	2.8866e-01	-1.6099e+00	7.1026e-01	4.2562e+02
48	6.9071e-01	1.8762e-01	-1.4599e+00	5.6590e-01	0.0000e+00
49	7.5008e-01	4.0946e-01	-1.5027e+00	7.4599e-01	0.0000e+00
50	9.9340e-01	5.7857e-01	-2.6302e-01	1.5127e+00	0.0000e+00
51	6.9642e-01	1.7965e-01	-6.3947e-01	1.0714e+00	-1.1469e+03
52	4.6811e-01	6.3839e-02	-3.3200e-01	8.1162e-02	1.8474e+03
53	6.5940e-01	3.0054e-01	-2.1138e+00	1.7294e-01	0.0000e+00
54	7.1428e-01	1.3037e-01	-7.7659e-01	4.9396e-01	1.6181e+03
55	7.7104e-01	1.7057e-01	-1.2252e+00	7.3818e-01	1.3214e+03
56	4.2544e-01	2.0195e-02	7.8449e-02	6.8841e-02	9.9399e+02
57	7.6937e-01	3.1737e-01	-1.4443e+00	8.5428e-01	0.0000e+00
58	8.6172e-01	9.9661e-02	-1.0277e+00	-2.3939e-01	3.0224e+03
59	4.3756e-01	1.0381e-01	-2.0583e-01	4.9989e-02	1.5219e+02
60	8.6838e-01	5.5661e-01	-1.0887e+00	1.3118e+00	0.0000e+00
61	6.1234e-01	1.4142e-01	9.2754e-02	-9.6343e-02	0.0000e+00
62	9.5733e-01	3.3877e-01	-6.1504e-01	2.3827e-01	0.0000e+00
63	1.0293e+00	2.7672e-02	3.7937e-01	2.1441e-02	2.6894e+02
64	3.4551e-02	-2.1994e-03	2.6099e-01	1.1912e-02	2.3236e+03
65	-1.4942e-03	1.0260e-02	-1.1087e-01	1.2857e-01	2.3387e+03
66	9.7246e-03	-1.4056e-03	-1.8964e-01	1.6557e-01	1.4258e+03
67	3.2508e-01	1.4544e-01	-1.5583e-01	-2.7349e-01	0.0000e+00
68	2.9242e-02	1.0767e-01	-7.4201e-02	-3.9665e-03	1.8183e+03
69	2.4798e-01	8.5208e-02	-2.4367e-02	1.7655e-01	4.5198e+02
70	3.1305e-01	2.6780e-01	-7.4572e-01	3.2115e-01	0.0000e+00
71	3.5226e-01	5.9304e-02	-1.6824e-01	-4.5765e-01	9.9944e+02
72	4.7273e-01	1.1471e-01	-1.3040e-01	-1.7150e-01	7.1046e+02
73	1.8712e-02	4.2227e-02	-1.2084e-01	-2.6274e-01	2.0325e+03
74	3.9064e-01	1.3664e-01	-1.5361e-01	-3.3327e-01	0.0000e+00
75	5.2302e-01	1.6101e-01	2.7929e-01	-2.7549e-01	0.0000e+00
76	3.5919e-01	8.2193e-02	-2.4426e-01	-4.6755e-01	3.6227e+02
77	4.8076e-01	1.6674e-01	2.9319e-01	-1.8601e-01	0.0000e+00
78	6.0131e-01	1.4190e-01	4.8386e-01	-1.0246e-01	0.0000e+00
79	5.0066e-01	1.3144e-01	-7.9307e-02	1.9391e-01	1.8085e+01
80	2.3033e-01	1.1397e-01	-3.8486e-02	1.5329e-01	3.1260e+02
81	3.2946e-01	6.4344e-02	-4.0466e-02	-3.5151e-01	2.0049e+03
82	5.9298e-01	1.4805e-01	2.6494e-01	-2.7312e-01	0.0000e+00
83	6.8346e-01	2.1498e-01	4.3343e-01	2.0580e-01	0.0000e+00
84	4.4530e-01	7.5416e-02	-5.0859e-01	6.3212e-02	1.0986e+03
85	6.5616e-01	1.2649e-01	-6.5805e-01	3.2436e-01	1.3862e+03
86	6.7070e-01	9.7747e-02	-5.6465e-01	2.2963e-01	3.5156e+03
87	3.5959e-01	1.1914e-01	-5.4738e-02	-3.4211e-01	-1.4345e+03
88	5.9470e-01	8.3906e-02	-2.4483e-01	3.1312e-01	1.6207e+03
89	6.5410e-01	6.3300e-02	-6.0774e-01	-1.6626e-01	3.0721e+03
90	7.2882e-01	1.2901e-01	-5.5795e-01	2.6768e-01	2.5656e+03
91	4.2499e-01	1.0096e-01	-1.7683e-01	6.6622e-02	0.0000e+00
92	5.7715e-01	1.1771e-01	-2.8785e-01	-1.0090e-01	3.1737e+03
93	6.0756e-01	1.3355e-01	-6.7076e-01	-1.9252e-02	0.0000e+00
94	5.4981e-01	6.8231e-02	-1.1744e-01	-1.5029e-01	2.1596e+03
95	2.0182e-01	5.7044e-02	3.2242e-02	1.1065e-01	1.5627e+03
96	7.8273e-01	2.6857e-01	-9.9151e-01	1.0220e+00	1.0989e+03
97	7.4702e-01	2.2447e-01	-8.2899e-01	3.0247e-01	4.3350e+02
98	5.6940e-01	9.6398e-02	-1.6287e-01	1.5330e-01	-1.8132e+03
99	8.0412e-01	2.9326e-01	-1.1592e+00	8.1657e-01	0.0000e+00
100	7.0863e-01	2.4335e-01	-1.3008e+00	1.1589e+00	0.0000e+00
101	3.6199e-01	1.0778e-01	-4.0093e-01	-1.3671e-01	0.0000e+00
102	7.4056e-01	1.5567e-01	-1.0173e+00	3.2623e-01	1.9762e+03
103	7.4740e-01	3.3411e-01	-1.5797e+00	1.0047e+00	0.0000e+00
104	7.8199e-01	2.9202e-01	-1.1577e+00	1.1453e+00	-5.1660e+00
105	7.1710e-01	3.7765e-01	-1.7976e+00	1.2119e+00	0.0000e+00
106	6.4559e-01	1.4905e-01	-8.5789e-01	8.4759e-01	0.0000e+00
107	7.7644e-01	8.8075e-02	-5.4100e-01	1.4087e-01	3.1177e+03
108	7.2842e-01	2.3663e-01	-9.7045e-01	3.5933e-01	-4.8657e+02
109	7.1001e-01	1.0313e-01	-8.4790e-01	3.5019e-01	2.3079e+03
110	6.9867e-01	1.9286e-01	-9.5857e-01	8.5222e-01	0.0000e+00
111	7.6709e-01	1.0032e-01	-8.5176e-01	2.1184e-02	2.5209e+03
112	7.4196e-01	3.0237e-01	-1.5118e+00	9.0753e-01	7.7477e+02
113	6.3396e-01	1.0382e-01	-3.5778e-01	3.6251e-01	1.6452e+03
114	7.7983e-01	4.0118e-01	-1.3822e+00	8.9674e-01	0.0000e+00
115	6.8620e-01	1.5490e-01	-4.6649e-01	7.0482e-01	1.2405e+03
116	7.4271e-01	2.4300e-01	-1.3357e+00	7.4619e-01	1.7775e+03
117	7.9625e-01	2.4629e-01	-1.2034e+00	8.7449e-01	-1.0068e+03
118	8.5283e-01	2.9381e-01	-9.4120e-01	7.8379e-01	0.0000e+00
119	7.1393e-01	3.3439e-01	-1.8302e+00	1.0278e+00	0.0000e+00
120	8.1014e-01	1.1171e-01	-8.3228e-01	-1.1652e-01	3.0830e+03
121	7.4753e-01	4.5997e-01	-1.5994e+00	1.1351e+00	0.0000e+00
122	7.3458e-01	2.7002e-01	-1.7224e+00	1.0394e+00	-9.0604e+02
123	7.3027e-01	3.2862e-01	-1.4725e+00	8.6882e-01	2.1082e+02
124	4.9507e-01	1.0920e-01	-3.2761e-01	9.5461e-02	5.6126e+02
125	1.2209e+00	1.2289e-01	-9.8518e-01	-2.4415e-01	0.0000e+00
126	7.1062e-01	1.8901e-01	-1.1629e+00	9.7624e-01	1.0600e+03
127	5.4586e-01	6.6713e-02	-1.6131e-01	-1.5288e-01	2.3201e+03
128	1.6935e-01	1.2250e-01	-1.3543e-02	-8.0125e-02	0.0000e+00
129	-4.3558e-04	8.1856e-02	1.0858e-01	2.1428e-01	1.4156e+03
130	2.5480e-01	9.6288e-02	-4.8217e-02	9.4645e-02	6.2276e+02
131	4.9480e-02	1.1208e-01	-9.2908e-02	2.1734e-01	1.1209e+03
132	1.3437e-02	5.6762e-02	-1.8479e-01	-1.7743e-02	2.0066e+03
133	2.4396e-01	6.5792e-02	-1.0188e-02	1.0083e-01	9.6416e+02
134	3.2694e-01	1.3708e-01	-4.2398e-01	-1.9319e-01	-8.2457e+02
135	1.4568e-01	1.2454e-01	-1.1898e-01	-1.5069e-02	0.0000e+00
136	2.3026e-01	6.4081e-02	-5.6332e-02	2.4501e-01	1.0368e+03
137	4.5481e-01	1.1724e-01	-3.2088e-01	-4.2583e-02	2.7894e+02
138	4.1372e-01	6.3480e-02	-1.7307e-01	-3.3803e-01	7.5547e+02
139	3.6560e-01	1.1838e-01	9.4797e-02	3.2399e-01	0.0000e+00
140	3.3919e-01	1.0180e-01	1.7054e-01	-4.8341e-02	4.7199e+02
141	3.6384e-01	9.2819e-02	-8.2531e-02	-2.5689e-01	8.9716e+01
142	4.0453e-01	1.1767e-01	-3.3461e-02	-4.5931e-01	0.0000e+00
143	2.9085e-01	4.9948e-02	-1.9034e-01	5.8197e-02	1.4202e+03
144	3.4282e-01	1.2005e-01	-1.4576e-01	-4.9652e-02	3.4810e+02
145	2.1550e-01	8.0929e-02	-3.1762e-02	1.2395e-01	8.5807e+02
146	6.9840e-01	1.2361e-01	-6.8570e-01	4.1944e-01	2.7020e+03
147	2.7236e-01	5.6854e-02	-2.9946e-01	1.6933e-01	1.3226e+03
148	7.5053e-01	1.1782e-01	-6.7152e-01	3.7751e-01	2.1066e+03
149	3.2973e-01	7.4705e-02	-2.2650e-01	-1.4031e-01	5.4671e+02
150	4.3856e-01	6.0718e-02	-5.5295e-01	-7.9007e-02	1.5405e+03
151	4.6622e-01	1.3929e-01	-2.9926e-02	1.0645e-01	0.0000e+00
152	5.8418e-01	7.5048e-02	-2.1233e-01	-7.3797e-02	1.8943e+03
153	5.3272e-01	8.5293e-02	-2.5431e-01	-8.2541e-02	1.0372e+03
154	5.0988e-01	1.1263e-01	-1.4834e-01	9.2865e-02	1.1050e+03
155	5.4946e-01	1.6786e-01	-4.3093e-01	-1.8448e-01	0.0000e+00
156	6.1163e-01	9.5709e-02	-2.2849e-01	9.4851e-03	3.9664e+03
157	6.0560e-01	1.1430e-01	-2.7508e-01	2.9057e-01	5.2163e+03
158	7.8584e-01	2.0792e-01	-8.6520e-01	8.2059e-01	1.9349e+02
159	2.5518e-01	4.8789e-02	-1.4670e-01	-4.4512e-02	1.9662e+02
160	4.8693e-01	4.0686e-02	-2.9724e-01	5.4989e-02	2.2387e+03
161	7.2090e-01	1.9961e-01	-1.1507e+00	6.5785e-01	1.3684e+03
162	6.6237e-01	1.4648e-01	-7.9267e-01	2.4096e-01	4.9338e+02
163	4.8148e-01	1.4149e-01	4.5399e-02	6.4855e-02	0.0000e+00
164	3.6628e-01	2.0264e-01	-3.4787e-01	6.5794e-02	0.0000e+00
165	6.9487e-01	3.4141e-01	-1.8506e+00	1.0436e+00	0.0000e+00
166	7.5154e-01	4.8651e-01	-1.5670e+00	1.1955e+00	0.0000e+00
167	6.8889e-01	4.0806e-01	-1.6466e+00	1.1532e+00	0.0000e+00
168	5.4174e-01	1.6621e-01	-6.5075e-01	-2.2892e-02	0.0000e+00
169	7.9837e-01	2.9515e-01	-9.9971e-01	1.1664e+00	0.0000e+00
170	7.2650e-01	2.8692e-01	-1.8455e+00	7.6522e-01	0.0000e+00
171	5.2074e-01	1.8388e-01	-4.6371e-01	-2.1840e-01	0.0000e+00
172	6.7672e-01	1.3936e-01	-6.3413e-01	3.5775e-01	3.6448e+03
173	5.0402e-01	8.8630e-02	-1.0445e-01	-9.9321e-02	1.3251e+03
174	6.4975e-01	3.5161e-01	-2.3949e+00	9.3990e-01	0.0000e+00
175	8.2678e-01	4.5164e-01	-8.9008e-01	1.1986e+00	0.0000e+00
176	8.4670e-01	9.7552e-02	-8.2403e-01	-8.3798e-02	2.5256e+03
177	7.3899e-01	2.5887e-01	-1.2755e+00	9.8820e-01	5.7103e+02
178	6.4673e-01	3.8656e-01	-2.4519e+00	7.6522e-01	0.0000e+00
179	7.1227e-01	5.9378e-02	-5.1066e-01	2.0091e-01	3.0102e+03
180	7.1560e-01	2.0855e-01	-1.0458e+00	3.6240e-01	1.8848e+03
181	5.9103e-01	1.8708e-01	-3.1346e-01	1.1013e-01	0.0000e+00
182	7.0678e-01	1.7609e-01	-9.6914e-01	6.7403e-01	9.7150e+02
183	7.0271e-01	3.4851e-01	-1.9655e+00	6.0526e-01	0.0000e+00
184	7.6942e-01	2.1102e-01	-1.0814e+00	8.0040e-01	1.9501e+03
185	6.9805e-01	2.6245e-01	-1.7758e+00	9.7971e-01	0.0000e+00
186	6.4953e-01	3.8921e-01	-2.0653e+00	9.3499e-01	0.0000e+00
187	7.0922e-01	1.4633e-01	-1.4550e+00	5.1938e-01	1.4423e+03
188	7.6938e-01	3.7316e-01	-1.4902e+00	1.4954e+00	0.0000e+00
189	7.5671e-01	1.9771e-01	-1.1647e+00	1.0885e+00	1.2063e+03
190	3.7977e-01	5.9326e-02	-2.4872e-01	1.8876e-01	-1.9344e+02
191	5.9047e-01	6.0825e-02	-3.8821e-01	-1.2093e-02	2.3734e+03
192	3.0306e-01	1.4824e-01	-5.8107e-02	-3.4672e-02	0.0000e+00
193	1.3366e-02	9.7075e-02	-3.0378e-02	9.6740e-02	1.5262e+03
194	1.0199e-01	1.1500e-01	6.1163e-02	1.4616e-01	-2.0762e+01
195	3.0166e-01	8.0599e-02	-1.3017e-01	2.7319e-02	1.2778e+03
196	-6.9254e-04	6.6826e-02	2.1565e-01	1.9753e-01	1.3550e+03
197	1.0913e-01	1.0454e-01	9.7709e-02	8.0509e-02	1.8204e+02
198	2.8856e-01	1.4197e-01	4.1115e-02	2.2699e-01	0.0000e+00
199	5.2006e-01	8.4344e-02	-1.6319e-01	1.4313e-01	1.0665e+03
200	1.8207e-01	7.5209e-02	-2.4359e-01	-3.5677e-01	1.0379e+03
201	1.3263e-01	1.0846e-01	-1.7046e-01	1.9296e-01	3.4213e+02
202	3.6677e-01	9.1201e-02	-7.0272e-02	-2.6618e-01	1.5636e+02
203	2.1183e-02	7.3455e-02	1.7068e-01	-1.0495e-01	1.9294e+03
204	2.8679e-01	7.2370e-02	-3.2568e-01	-1.2824e-01	5.3426e+02
205	2.1724e-01	9.5167e-02	-7.2914e-02	1.3344e-01	3.9061e+02
206	3.8744e-01	1.3546e-01	-1.4031e-01	-1.5927e-01	0.0000e+00
207	3.6209e-01	4.0449e-02	-7.5325e-02	-1.8207e-01	5.7265e+02
208	5.0132e-01	1.2965e-01	-2.0309e-01	3.6937e-02	-1.4953e+02
209	1.3741e-01	1.3141e-01	-1.8527e-01	3.0826e-01	0.0000e+00
210	7.0949e-01	1.7855e-01	-1.7486e-02	-2.1255e-01	7.3917e+02
211	3.4632e-01	1.5145e-01	-9.7461e-02	-1.1718e-01	0.0000e+00
212	3.2940e-01	1.4675e-01	-3.9516e-02	2.1425e-02	0.0000e+00
213	2.6629e-01	1.1141e-01	2.1960e-01	4.7648e-02	6.2865e+02
214	6.2962e-01	1.3857e-01	-9.8849e-02	1.0132e+00	4.5234e+03
215	4.6203e-01	8.1131e-02	-1.4381e-02	-7.5931e-02	9.7706e+02
216	5.6098e-01	1.2704e-01	4.7926e-01	-5.6421e-02	0.0000e+00
217	1.7592e-01	3.8493e-02	-1.6796e-01	-4.6569e-02	2.6807e+03
218	5.4825e-01	1.5401e-01	-4.8284e-01	-2.5456e-01	0.0000e+00
219	3.3234e-01	1.4675e-01	-4.6145e-02	-3.2922e-02	0.0000e+00
220	3.3281e-01	9.6971e-02	-6.3101e-02	-3.2318e-01	1.0417e+03
221	7.3266e-01	1.6192e-01	-6.1655e-01	2.2813e-01	1.3888e+03
222	2.1245e-01	1.1119e-01	-2.1307e-01	1.6971e-01	5.1381e+02
223	2.9818e-01	1.3219e-01	-8.4314e-02	-2.1268e-02	3.2357e+02
224	5.2780e-01	1.0004e-01	-1.7343e-01	1.8237e-01	7.7330e+02
225	6.7132e-01	1.1330e-01	-4.1632e-01	3.1108e-01	2.8988e+03
226	2.8300e-01	8.7401e-02	-1.4549e-01	-4.7347e-03	7.9808e+02
227	7.3674e-01	2.3679e-01	-9.4435e-01	7.5187e-01	8.2117e+02
228	5.9324e-01	7.4576e-02	-1.8851e-01	5.1445e-02	1.5371e+03
229	6.8581e-01	3.3959e-01	-2.0105e+00	8.2236e-01	0.0000e+00
230	3.6507e-01	9.2707e-02	-8.1391e-02	-2.3375e-01	9.2169e+01
231	4.5977e-01	9.3206e-02	-1.3823e-01	-1.5867e-01	8.5076e+02
232	7.4620e-01	1.7331e-01	-1.4152e+00	6.6170e-01	2.6031e+03
233	4.3246e-01	9.5210e-02	-2.3349e-01	-8.0321e-02	4.8362e+02
234	6.4637e-01	1.0480e-01	-1.1077e-01	3.7126e-01	3.0654e+03
235	7.5755e-01	2.2632e-01	-9.1622e-01	1.0595e+00	8.4056e+02
236	7.3026e-01	3.5324e-01	-1.7808e+00	9.9555e-01	0.0000e+00
237	4.8790e-01	9.6601e-02	-4.9231e-03	-8.3848e-02	9.3079e+02
238	2.3921e-01	1.4203e-02	-1.4647e-01	-3.4801e-02	1.4857e+03
239	6.6052e-01	1.3398e-01	-5.1216e-01	1.8456e-01	3.0595e+02
240	6.3102e-01	3.9898e-01	-2.6319e+00	9.7070e-01	0.0000e+00
241	6.3797e-01	3.7937e-01	-2.2687e+00	9.1918e-01	0.0000e+00
242	7.3906e-01	1.2672e-01	-8.4055e-01	5.6181e-01	2.5340e+03
243	6.7431e-01	1.1336e-01	-3.3700e-01	-9.2842e-02	2.9132e+03
244	4.2793e-01	1.6353e-01	2.0930e-01	-5.8270e-02	0.0000e+00
245	6.2688e-01	1.1484e-01	-8.0739e-02	5.9815e-01	2.5269e+03
246	4.1245e-01	8.2361e-02	-3.9575e-02	-4.9107e-02	6.6574e+02
247	4.9702e-01	4.1399e-02	-2.5355e-01	3.7777e-02	2.2097e+03
248	7.6545e-01	1.9866e-01	-9.1009e-01	7.8656e-01	2.1208e+03
249	4.2176e-01	4.1705e-02	2.6606e-02	2.8718e-01	1.4723e+03
250	4.7065e-01	1.0311e-01	-1.0715e-01	-1.4385e-01	6.9109e+02
251	5.5315e-01	1.3134e-01	8.4434e-02	8.9326e-02	0.0000e+00
252	6.3189e-01	1.3171e-01	-6.6609e-01	6.1822e-01	2.3818e+03
253	2.3569e-01	8.0137e-02	-1.0972e-01	1.6699e-01	7.5419e+02
254	7.0088e-01	1.5220e-01	-1.0047e+00	6.7732e-01	7.8365e+02
255	8.6899e-01	3.1661e-02	-3.7638e-01	-1.3384e-01	1.1860e+03
256	4.5726e-01	1.3238e-01	2.0427e-01	-2.3111e-01	0.0000e+00
257	4.9378e-02	5.7479e-02	7.1506e-02	-3.9084e-03	1.8901e+03
258	1.2381e-02	2.7476e-02	-4.5782e-02	8.1693e-03	2.0558e+03
259	3.5748e-01	9.6921e-02	1.5669e-01	-1.5021e-01	2.9040e+02
260	1.6854e-01	1.2853e-01	-1.6384e-01	-1.0888e-01	0.0000e+00
261	4.2477e-02	1.0587e-01	-1.6822e-01	3.2790e-02	7.2924e+02
262	6.6819e-02	1.0939e-01	-3.6943e-01	1.7996e-01	4.2176e+03
263	3.2088e-01	1.1663e-01	6.3994e-02	4.3519e-02	1.6007e+02
264	9.7099e-02	9.4614e-02	1.4564e-01	6.3930e-02	9.7330e+02
265	1.1687e-01	1.1235e-01	2.1754e-01	7.0196e-02	2.8921e+02
266	2.3782e-01	1.0158e-01	7.1193e-03	8.4356e-02	5.4875e+02
267	1.1488e-01	4.8628e-02	1.1226e-01	2.4069e-01	7.8104e+02
268	3.3736e-01	1.3502e-01	1.6949e-01	1.9250e-01	1.8066e+02
269	3.3502e-01	1.3470e-01	1.4353e-01	1.8729e-01	3.1942e+02
270	1.1627e-01	1.0433e-01	8.1330e-02	5.2860e-02	4.0062e+02
271	3.6970e-01	1.6812e-01	3.2201e-01	7.1089e-02	0.0000e+00
272	2.1524e-01	1.0858e-01	-1.5374e-01	1.1099e-01	2.9766e+02
273	1.1088e-01	8.4904e-02	6.1547e-02	-9.9365e-02	4.7734e+02
274	5.1297e-01	8.9951e-02	5.7385e-02	1.5780e-02	7.5151e+02
275	4.4588e-01	1.0518e-01	-2.0718e-01	1.7223e-02	5.1223e+02
276	3.3010e-01	3.1557e-02	-2.0085e-01	-3.5879e-01	1.3774e+03
277	5.2342e-01	1.4231e-01	-4.6833e-01	5.8801e-02	0.0000e+00
278	5.0928e-01	1.4031e-01	9.1670e-02	-8.9116e-02	0.0000e+00
279	6.2044e-01	2.0771e-01	1.6789e-01	-7.0836e-02	0.0000e+00
280	6.1282e-01	7.1773e-02	-3.9306e-01	2.5022e-01	3.3062e+03
281	3.2685e-02	9.0787e-02	-8.6361e-02	1.5226e-01	1.5322e+03
282	6.7676e-01	1.5400e-01	-5.3901e-01	6.3646e-01	4.0757e+02
283	4.5222e-01	1.1673e-01	-2.6727e-01	1.2081e-01	3.4190e+02
284	3.4278e-01	2.6010e-02	3.8684e-01	-8.7060e-04	9.2514e+02
285	5.1373e-01	1.3760e-01	-5.1234e-02	-6.6655e-03	0.0000e+00
286	2.9621e-01	9.7269e-02	4.6752e-02	-1.8805e-01	7.7588e+02
287	3.4213e-01	1.1700e-01	8.3196e-02	-1.3561e-01	7.8534e+02
288	5.0498e-01	1.1103e-01	-4.4210e-02	-5.7514e-02	9.2522e+02
289	8.9791e-02	7.4471e-02	2.9138e-01	-9.5094e-02	2.3953e+03
290	5.3354e-01	7.3051e-02	-3.1731e-01	4.5222e-02	1.1536e+03
291	2.7564e-01	9.4675e-02	-3.8747e-02	-6.9409e-02	6.8608e+02
292	6.6397e-01	1.4285e-01	-1.4687e-01	9.2004e-02	1.1038e+03
293	6.0333e-01	1.8656e-01	2.5894e-01	-1.5871e-01	0.0000e+00
294	3.3276e-01	2.2207e-02	-2.5103e-01	-2.8899e-03	2.3972e+03
295	3.3229e-01	7.2459e-02	1.0122e-01	-1.2662e-01	9.4455e+02
296	4.5248e-01	1.2669e-01	-1.9382e-01	-1.4264e-02	0.0000e+00
297	6.0962e-01	1.8798e-01	3.5105e-01	-1.1872e-01	0.0000e+00
298	7.0286e-01	2.4381e-01	-1.1782e-01	8.5274e-02	0.0000e+00
299	2.7552e-01	1.0416e-01	8.8095e-02	-6.0728e-02	6.8533e+02
300	2.2230e-01	6.1525e-02	2.6353e-02	1.4259e-01	9.8278e+02
301	6.7384e-01	8.9113e-02	-5.0665e-01	1.9769e-01	2.8213e+03
302	7.3253e-01	2.3269e-01	-1.0908e+00	1.2093e+00	1.0948e+03
303	3.4485e-01	1.8369e-01	-4.0300e-01	4.4220e-02	0.0000e+00
304	7.0681e-01	1.4170e-01	-5.3246e-01	3.9094e-01	1.7059e+03
305	7.1049e-01	2.7192e-01	-1.1433e+00	1.3988e+00	0.0000e+00
306	6.6180e-01	7.9975e-02	-2.8799e-01	7.8106e-02	3.1686e+03
307	6.8556e-01	4.3905e-01	-1.8119e+00	1.1978e+00	0.0000e+00
308	6.3573e-01	9.6705e-02	-3.5324e-01	3.6211e-01	1.6812e+03
309	7.4569e-01	1.8950e-01	-1.3018e+00	7.3916e-01	2.1183e+03
310	6.8947e-01	5.7300e-02	-6.7401e-01	-4.4739e-02	3.4172e+03
311	6.9913e-01	1.8802e-01	-7.1293e-01	9.1002e-01	0.0000e+00
312	4.8342e-01	1.8411e-02	-1.0238e-01	1.2276e-02	2.3035e+03
313	4.6823e-01	1.1132e-01	-1.7559e-01	-6.1549e-02	3.3083e+02
314	6.4696e-01	3.6537e-01	-2.1298e+00	8.2798e-01	0.0000e+00
315	6.6292e-01	3.4013e-01	-2.2148e+00	6.4998e-01	0.0000e+00
316	6.8225e-01	1.5724e-01	-1.1975e+00	7.8476e-01	5.0951e+01
317	6.8313e-01	2.8647e-01	-1.9943e+00	1.2720e+00	0.0000e+00
318	8.6263e-01	5.4506e-02	-5.7952e-01	1.5680e-01	5.2549e+02
319	8.4892e-01	1.2125e-01	-1.3614e+00	-1.0946e-01	3.3055e+03
320	2.8933e-02	8.6208e-02	-1.0075e-01	-8.8776e-02	1.5487e+03
321	3.3609e-02	1.2126e-01	9.0007e-02	6.1799e-02	5.6975e+02
322	3.6203e-02	4.0444e-02	-1.1618e-01	1.7877e-01	2.1030e+03
323	2.3198e-01	1.0465e-01	-1.4228e-02	7.7492e-02	2.9774e+02
324	1.4902e-01	-3.5863e-04	1.1021e-01	-1.3768e-01	2.6124e+03
325	1.0295e-01	1.3724e-01	-1.3705e-01	-1.5626e-01	0.0000e+00
326	3.0685e-01	1.1231e-01	-4.0802e-03	1.0558e-01	7.5667e+02
327	3.8843e-01	6.5488e-02	-1.5354e-01	-7.0074e-02	4.0370e+02
328	1.7713e-01	9.0877e-02	-5.7126e-04	1.8258e-01	8.4146e+02
329	7.4502e-02	1.1182e-01	1.8920e-01	5.1844e-02	-1.2901e+03
330	2.9582e-01	8.3477e-02	-2.5696e-02	-1.0623e-01	1.1930e+03
331	1.1890e-01	6.9694e-02	-1.4635e-01	-1.1371e-01	1.1999e+03
332	2.8377e-01	7.7729e-02	3.9115e-02	1.4127e-01	5.8658e+02
333	7.6491e-02	1.2491e-01	-4.4706e-02	7.9346e-01	0.0000e+00
334	4.6776e-02	1.2879e-01	-8.0941e-02	1.7005e-01	0.0000e+00
335	3.1945e-01	1.1620e-01	-1.2723e-01	-2.0834e-01	2.1765e+02
336	4.0773e-01	1.8020e-01	2.6392e-02	-1.0257e-01	0.0000e+00
337	4.1985e-01	2.0354e-01	2.3354e-01	1.0735e-01	0.0000e+00
338	1.7276e-01	1.1643e-01	-5.0903e-02	6.4069e-02	1.9439e+02
339	6.8012e-02	8.4461e-02	5.1385e-02	1.6289e-01	1.0774e+03
340	3.4039e-01	4.9120e-02	-2.5124e-01	-3.5134e-01	1.0767e+03
341	3.4523e-01	6.3210e-02	-2.1515e-01	-3.3905e-01	1.1520e+03
342	5.3958e-01	1.2805e-01	1.7498e-01	-3.7374e-03	6.5662e+02
343	6.1310e-01	4.0297e-02	-3.9547e-01	-6.8893e-02	3.8700e+03
344	5.2351e-01	1.3281e-01	-1.9112e-02	4.1815e-02	7.2940e+02
345	5.2984e-01	1.1745e-01	2.7531e-02	3.8089e-02	5.8635e+02
346	6.7881e-01	1.7766e-01	-8.6638e-01	7.6455e-01	0.0000e+00
347	5.0403e-01	8.4542e-02	-2.5602e-01	1.3017e-02	1.3722e+03
348	2.0559e-01	1.2393e-01	4.3777e-02	-9.9184e-02	0.0000e+00
349	2.5868e-01	7.4098e-02	-2.0929e-01	-2.3140e-02	1.4919e+03
350	8.5697e-02	6.8769e-02	1.2261e-01	-5.5984e-02	2.3103e+03
351	3.5800e-01	3.7493e-02	7.2524e-02	-1.5303e-02	9.8030e+02
352	6.1038e-01	2.3525e-01	4.2504e-01	1.4620e-01	0.0000e+00
353	5.0205e-01	1.1670e-01	-1.6343e-01	-1.8600e-02	2.9379e+02
354	5.1751e-01	1.1876e-01	-4.4246e-02	4.9436e-02	5.8918e+02
355	1.9684e-01	9.2183e-02	-7.0156e-02	9.7921e-02	5.7916e+02
356	1.8547e-01	1.1055e-01	6.3656e-02	-3.6585e-03	9.1365e+01
357	8.3046e-02	9.9339e-02	6.7183e-01	-5.9564e-01	-1.3410e+02
358	2.9439e-01	4.8260e-02	-1.6951e-01	1.3501e-01	1.2566e+03
359	2.1876e-01	4.7597e-02	-8.7379e-02	1.8615e-01	1.3410e+03
360	3.7960e-01	2.3938e-02	2.6141e-01	2.0169e-01	-6.0087e+02
361	6.3926e-01	1.5280e-01	-4.9263e-01	-2.8546e-01	0.0000e+00
362	2.7914e-01	6.5715e-02	-2.0541e-01	4.0033e-02	9.7923e+02
363	4.9704e-01	9.3035e-02	-7.1391e-02	-8.7838e-02	1.2506e+03
364	3.3816e-01	7.9697e-02	6.0918e-02	-1.1167e-02	3.5195e+02
365	4.9573e-01	6.7536e-02	-3.7866e-01	3.1483e-02	1.4552e+03
366	5.6231e-01	9.7068e-02	-1.5813e-01	-1.3863e-01	-1.8083e+03
367	2.3879e-01	9.8528e-02	-3.1450e-02	2.7850e-01	6.2340e+02
368	3.4342e-01	1.4006e-01	-2.2562e-01	8.8773e-02	0.0000e+00
369	3.4965e-01	1.2412e-01	-3.8393e-01	6.8977e-02	1.0584e+02
370	4.2910e-01	8.4281e-02	-3.6389e-01	1.7080e-01	1.7777e+02
371	7.0143e-01	8.5422e-02	-4.7988e-01	2.1263e-01	2.3768e+03
372	5.7270e-01	1.4735e-01	4.6931e-02	4.6718e-01	0.0000e+00
373	7.2881e-01	1.5558e-01	-1.3623e+00	3.7952e-01	1.1263e+03
374	3.4540e-01	7.6731e-02	-3.6902e-01	-1.9889e-01	8.8071e+02
375	7.9295e-01	6.1550e-01	-1.3384e+00	1.8844e+00	0.0000e+00
376	1.1097e+00	4.7591e-02	-1.0612e-01	-1.0248e-01	-8.9899e+01
377	6.6183e-01	1.2027e-01	-9.7982e-01	1.7761e-01	2.8404e+03
378	6.4662e-01	1.1093e-01	-6.2143e-01	1.7107e-01	4.4843e+03
379	6.3148e-01	1.1553e-01	-5.8753e-01	2.7366e-01	1.4262e+03
380	6.4677e-01	1.5353e-01	-1.7928e-02	-6.8499e-02	0.0000e+00
381	7.0248e-01	1.6569e-01	-5.0724e-01	6.1698e-01	8.3578e+02
382	7.6051e-01	5.2554e-01	-1.2664e+00	1.8215e+00	0.0000e+00
383	8.3536e-01	1.0946e-01	-7.0515e-01	-1.1644e-02	2.2599e+03
384	2.4691e-01	1.1847e-01	7.6495e-02	1.5434e-01	1.3249e+02
385	2.1617e-02	4.6704e-02	-2.8128e-01	9.5723e-02	1.9586e+03
386	-2.0077e-04	5.5755e-02	2.1661e-02	-3.0274e-02	1.4953e+03
387	2.7623e-01	1.4001e-01	1.5699e-01	9.8855e-02	0.0000e+00
388	3.7722e-02	6.6648e-02	-1.7929e-02	1.2807e-02	1.3550e+03
389	2.5237e-01	1.1338e-01	8.5185e-02	1.2496e-01	2.7620e+02
390	5.1769e-02	1.0822e-01	-1.8029e-01	-2.7559e-02	1.8323e+03
391	5.3506e-01	1.5949e-01	-4.9320e-01	-1.1088e-01	0.0000e+00
392	8.0501e-02	1.3024e-01	-1.5158e-01	3.0621e-01	0.0000e+00
393	1.2373e-01	9.4239e-02	3.0900e-02	1.9307e-01	7.7608e+02
394	6.7108e-02	1.0654e-01	-3.4425e-01	-5.8175e-02	4.7586e+03
395	2.5083e-01	1.2348e-01	-6.9530e-02	-2.5402e-02	1.9052e+02
396	7.5755e-02	1.4790e-01	-4.0021e-01	-7.8315e-02	0.0000e+00
397	5.3290e-02	4.4937e-02	5.2957e-03	1.6853e-01	1.7522e+03
398	2.6795e-01	1.1635e-01	5.9064e-02	-1.1123e-01	2.4253e+02
399	8.9365e-02	3.6371e-02	-1.2621e-01	4.1675e-02	1.2379e+03
400	1.4798e-02	9.1226e-02	6.5428e-02	4.8712e-02	1.3973e+03
401	3.7366e-01	1.3982e-02	3.0277e-01	2.5149e-01	1.2620e+03
402	1.1212e-01	8.7076e-02	-2.6496e-02	-1.0253e-02	2.1383e+02
403	5.5679e-02	8.4542e-02	3.9169e-02	2.4719e-02	1.8540e+03
404	5.0918e-01	1.2512e-01	-1.6884e-01	2.4901e-02	4.2452e+02
405	2.1498e-01	1.1092e-01	-9.7977e-02	2.7947e-01	3.5486e+02
406	8.0825e-02	7.8275e-02	9.0246e-02	3.0828e-02	9.1881e+02
407	3.4895e-01	7.3591e-02	-2.5474e-02	-1.0810e-01	6.9393e+02
408	5.0410e-01	6.8866e-02	-7.8998e-02	-5.1169e-02	1.6524e+03
409	1.3250e-01	1.2189e-01	1.1724e-01	2.9769e-01	0.0000e+00
410	3.6011e-01	7.9624e-02	1.6717e-01	-2.2772e-01	8.6422e+02
411	5.8523e-01	8.4344e-02	-5.4113e-02	1.3430e-01	2.4942e+03
412	7.0045e-02	9.3499e-02	1.0564e-01	-4.8910e-02	1.2487e+03
413	1.9024e-01	8.4500e-02	-2.0795e-01	3.6464e-03	3.4056e+02
414	8.9246e-02	1.0553e-01	3.8810e-01	1.7310e-01	-2.9725e+03
415	6.0216e-01	1.3238e-01	-2.4592e-01	2.3279e-01	0.0000e+00
416	2.6485e-01	1.2256e-01	5.9377e-02	6.2186e-02	-5.5102e+02
417	4.6532e-01	6.5617e-02	-3.7072e-01	-1.4242e-01	1.8299e+03
418	1.4984e-01	1.0448e-01	8.0265e-03	2.5857e-01	3.8179e+02
419	1.7096e-01	1.3828e-01	-1.6505e-01	3.5990e-02	0.0000e+00
420	3.0708e-01	9.8749e-02	-1.5481e-01	2.0075e-01	5.7956e+02
421	2.5301e-01	1.0760e-01	-2.0888e-02	1.2532e-01	4.9521e+02
422	3.0788e-01	1.0722e-01	3.0461e-02	1.5328e-01	6.3066e+02
423	2.4752e-01	6.9620e-02	-2.4406e-02	5.6578e-02	1.3978e+03
424	2.3535e-01	4.4015e-02	-8.9987e-02	4.3124e-04	1.6175e+03
425	3.2947e-01	1.1431e-02	-1.6190e-01	-3.8004e-01	2.3572e+03
426	1.8506e-01	1.1362e-01	-5.6072e-02	2.0371e-01	1.2960e+02
427	3.0439e-01	1.3061e-01	8.2990e-02	7.0852e-02	7.4712e+01
428	1.6239e-01	6.3533e-02	-1.7391e-01	-9.2701e-02	1.2888e+03
429	5.4955e-01	1.1978e-01	9.4815e-02	-3.5954e-02	5.4802e+02
430	7.3297e-01	1.7861e-01	-6.7375e-01	4.2308e-01	1.7378e+03
431	2.2526e-01	7.1583e-02	2.3403e-03	1.6376e-01	1.1511e+03
432	3.1825e-01	1.2769e-01	-2.5579e-02	1.2348e-01	7.8048e+02
433	5.3586e-01	1.1830e-01	7.3673e-02	2.1751e-01	5.7349e+02
434	4.2908e-01	7.6836e-02	-1.6010e-01	1.1663e-01	7.8526e+02
435	7.2609e-01	2.1668e-01	-9.1672e-01	1.0192e+00	3.7891e+02
436	5.2973e-01	1.1464e-01	-4.1591e-02	1.8284e-01	7.4138e+02
437	4.8414e-01	1.0170e-01	-2.3474e-01	2.9326e-01	6.3349e+02
438	4.5117e-01	6.3243e-02	-3.4000e-01	5.2635e-02	1.5156e+03
439	7.7086e-01	2.7686e-01	-1.1906e+00	9.9779e-01	-2.5911e+01
440	6.6153e-01	1.4014e-01	-1.8875e-01	1.2952e-01	7.4772e+02
441	4.7724e-01	1.1945e-01	-5.3919e-02	-1.5626e-01	6.3942e+02
442	3.0135e-01	6.2672e-02	-3.8674e-02	2.7775e-02	1.1584e+03
443	4.9984e-01	5.7381e-02	-3.1404e-01	-3.9042e-02	1.9596e+03
444	7.0392e-01	1.0087e-01	-6.6004e-01	3.9568e-01	2.6437e+03
445	7.5706e-01	2.4501e-01	-1.2484e+00	1.0877e+00	7.3604e+02
446	7.0207e-01	1.4314e-01	-1.2886e+00	5.2883e-01	9.5602e+02
447	6.4681e-01	2.2522e-01	-1.7185e+00	6.9277e-01	0.0000e+00
448	4.7282e-02	-1.4850e-03	-1.9315e-01	4.9240e-02	2.1870e+03
449	3.6454e-02	2.8459e-02	1.8005e-01	-2.3938e-02	2.3434e+03
450	3.0661e-01	1.4415e-01	-7.9961e-02	-3.2566e-02	0.0000e+00
451	3.6818e-01	1.4832e-01	3.4969e-01	-1.3039e-01	0.0000e+00
452	8.7068e-02	-6.1273e-04	-9.2785e-02	5.1973e-02	2.1302e+03
453	3.9789e-02	7.7684e-02	-1.5590e-01	-1.7207e-01	1.4651e+03
454	9.7282e-02	6.3239e-02	1.8441e-01	-1.3738e-01	1.8591e+03
455	6.1242e-02	6.6265e-02	-8.6409e-03	2.4888e-02	1.6585e+03
456	2.9054e-01	1.1305e-01	-1.8809e-01	9.5706e-02	4.2973e+02
457	3.9857e-02	4.0771e-02	-1.0934e-01	4.9199e-02	2.0427e+03
458	6.6482e-03	8.2340e-02	1.3482e-01	-5.7848e-02	1.1198e+03
459	2.1742e-02	1.9893e-02	-1.3216e-01	-4.9508e-02	1.8522e+03
460	3.1870e-01	1.6165e-01	-3.4420e-01	-1.7408e-01	0.0000e+00
461	2.2135e-01	1.2424e-01	1.2255e-01	-1.1541e-01	0.0000e+00
462	1.1301e-02	1.0945e-01	8.0871e-02	1.0997e-01	9.2770e+02
463	5.6640e-02	7.3659e-02	-9.3358e-02	7.0117e-02	1.9250e+03
464	3.5583e-01	9.2929e-02	-2.1487e-03	-1.3413e-01	1.2429e+02
465	1.1282e-01	1.2891e-01	2.0431e-02	-6.7193e-02	0.0000e+00
466	6.6809e-02	4.7898e-02	-9.6268e-02	1.1973e-01	1.6236e+03
467	1.8082e-01	1.1912e-01	4.3737e-02	-1.2874e-01	6.6437e+01
468	5.2757e-02	3.1416e-02	6.3585e-02	1.1443e-01	1.6519e+03
469	7.5937e-02	8.7491e-02	6.7571e-03	-3.8951e-02	4.9489e+02
470	2.2927e-02	6.6503e-02	2.2599e-02	-2.7347e-02	1.7550e+03
471	3.6925e-01	6.5984e-02	-2.2611e-01	2.5978e-02	1.0827e+03
472	1.3556e-01	5.8601e-02	1.8184e-01	1.2373e-01	1.2587e+03
473	2.2681e-01	1.1343e-01	1.0054e-02	1.7338e-01	1.7701e+02
474	6.2564e-02	2.6151e-02	6.3757e-02	1.2216e-01	2.1612e+03
475	3.0896e-02	1.3602e-01	7.6630e-02	1.5217e-01	0.0000e+00
476	3.7363e-01	1.1537e-01	-7.8172e-02	-4.7297e-01	0.0000e+00
477	2.6931e-01	1.2972e-01	1.4774e-01	-1.5739e-02	0.0000e+00
478	1.3598e-01	1.0755e-01	1.9644e-01	8.4913e-02	7.2624e+02
479	4.3124e-01	1.5372e-01	1.9827e-01	1.2022e-02	0.0000e+00
480	2.8353e-01	1.2974e-01	1.5989e-01	3.6003e-01	-9.7838e+01
481	3.3134e-01	4.7992e-02	-7.3023e-02	-1.3118e-01	8.9798e+02
482	1.5200e-01	8.6648e-02	-9.5081e-03	1.0439e-01	4.5546e+02
483	4.6013e-02	8.2070e-02	-1.3336e-01	-6.4443e-02	1.6287e+03
484	1.7026e-01	1.2358e-01	-6.4014e-02	1.6408e-01	0.0000e+00
485	1.3289e-01	8.3313e-02	-1.6373e-01	7.6937e-02	1.1047e+03
486	2.6097e-01	9.6208e-02	-4.2261e-02	1.0992e-01	6.4969e+02
487	2.1324e-01	8.5648e-02	-7.5990e-02	2.7636e-01	8.8242e+02
488	1.5924e-01	6.8719e-02	-1.0687e-01	1.3460e-01	1.2448e+03
489	2.5274e-01	2.0230e-02	-1.6688e-01	1.2984e-01	1.2707e+03
490	1.9533e-01	4.4159e-02	-5.7841e-02	1.6258e-01	1.1785e+03
491	3.5418e-01	1.6470e-01	2.1289e-01	-4.2845e-02	0.0000e+00
492	3.8872e-01	1.1734e-01	-2.9244e-03	-2.4910e-01	0.0000e+00
493	3.5482e-01	1.5679e-01	-1.3893e-01	-2.0165e-01	0.0000e+00
494	1.5621e-01	1.4895e-02	-2.4961e-01	1.5348e-02	1.8811e+03
495	5.3932e-01	8.9853e-02	1.6441e-01	2.9602e-01	2.5851e+03
496	3.5563e-01	3.1993e-02	-3.6033e-02	-2.3748e-01	2.2621e+03
497	2.5848e-01	9.3533e-02	2.9737e-02	1.5753e-01	5.8841e+02
498	4.4545e-01	1.9075e-01	-7.1756e-02	-7.1795e-02	0.0000e+00