variables="k","x","y","vx","vy","pressure"
zone i=8064 j=1
0	1.2558e-01	3.7141e-01	2.3285e-01	1.6951e-01	3.3651e+02
1	4.4424e-02	3.9997e-01	-1.9635e-01	-4.2965e-02	1.1581e+03
2	8.5527e-02	2.5176e-01	-1.7074e-01	2.4038e-01	1.6691e+03
3	1.1994e-01	2.2937e-02	-5.5339e-02	-6.0821e-02	2.8083e+03
4	5.3903e-02	3.4068e-01	1.3495e-01	6.4771e-02	1.0679e+03
5	1.5384e-01	1.1522e-01	8.8094e-02	-8.8627e-04	2.4320e+03
6	1.0349e-01	3.3817e-01	1.6652e-01	7.5027e-02	1.1401e+03
7	1.8564e-01	2.9691e-01	-1.0147e-01	4.0586e-02	1.0801e+03
8	-1.1511e-03	3.8413e-02	3.5981e-02	2.8851e-02	3.0841e+03
9	1.6711e-01	1.2552e-01	2.7678e-02	-1.5149e-01	2.3853e+03
10	7.1592e-02	2.6966e-01	-1.3500e-03	2.5961e-01	1.5387e+03
11	6.5146e-02	3.4393e-01	1.4499e-03	1.1975e-01	1.6891e+03
12	2.6732e-01	1.7837e-01	1.5245e-01	3.8954e-02	1.3989e+03
13	2.2030e-01	1.4962e-01	-7.0558e-02	-2.3767e-02	2.2250e+03
14	1.5055e-01	1.8455e-02	7.1705e-02	-6.7783e-02	2.8747e+03
15	1.5756e-02	3.1658e-01	3.9016e-01	1.2500e-02	1.5007e+03
16	1.8063e-01	2.8962e-01	9.5493e-03	7.7546e-02	1.0672e+03
17	2.9522e-01	2.6011e-02	7.2560e-02	3.0076e-02	2.2519e+03
18	2.0825e-01	3.7654e-01	1.6811e-01	5.1389e-02	-2.6767e+01
19	7.5447e-02	2.8618e-01	-1.7950e-01	6.7385e-02	1.2479e+03
20	6.9122e-02	4.7814e-01	2.4683e-01	-2.3294e-01	2.6750e+02
21	2.2205e-02	4.8475e-01	6.2350e-02	1.2218e-01	1.1275e+02
22	1.2913e-01	9.0521e-02	-1.0715e-01	4.3676e-02	2.6805e+03
23	2.1158e-01	1.9240e-01	-8.3199e-02	-2.1445e-02	1.7583e+03
24	2.7100e-01	5.0486e-02	2.9643e-01	1.9460e-02	2.0694e+03
25	-3.6037e-04	2.1490e-01	9.4813e-02	4.8127e-02	2.0285e+03
26	7.2076e-02	2.0979e-01	1.1274e-02	3.1383e-02	1.8149e+03
27	1.4966e-01	1.6768e-01	-1.8288e-02	-1.6711e-03	2.2590e+03
28	2.5397e-01	3.0913e-01	-1.4539e-01	-2.8659e-02	5.2924e+02
29	8.2540e-02	4.3235e-01	1.9612e-01	-3.1642e-02	2.6871e+02
30	-5.6615e-04	1.1941e-01	3.7397e-01	7.6477e-02	2.4831e+03
31	8.2682e-02	1.4934e-01	9.8172e-02	-1.0262e-01	2.2690e+03
32	8.8527e-02	4.1907e-01	8.1016e-02	1.3718e-01	5.9065e+02
33	2.3789e-01	1.5850e-01	-7.2297e-02	-1.5161e-01	1.7979e+03
34	2.4570e-01	6.2726e-01	7.4453e-01	-2.3101e-01	0.0000e+00
35	2.1928e-01	3.7682e-01	2.4394e-01	-7.0468e-02	3.0941e+01
36	1.2092e-01	4.7201e-01	2.1827e-01	1.1512e-02	0.0000e+00
37	3.0531e-01	3.0924e-01	2.9803e-01	9.2250e-02	7.6930e+02
38	4.0188e-01	3.0503e-01	3.4204e-01	2.1775e-01	-2.5808e+02
39	1.0720e-01	4.5831e-01	3.7596e-01	-1.8815e-01	1.6064e+02
40	1.8702e-01	3.6459e-01	-7.8953e-02	-6.1547e-02	-3.5698e+01
41	1.5586e-01	1.0131e-01	-1.5894e-01	-3.3269e-02	2.5222e+03
42	6.5011e-02	4.6775e-02	-1.2274e-01	-9.0674e-02	3.0254e+03
43	2.7337e-01	8.1483e-02	1.7222e-01	-2.3333e-01	2.0570e+03
44	8.6546e-02	3.4894e-01	-3.8415e-01	-2.9499e-02	4.1092e+02
45	3.6710e-01	3.1331e-01	2.6219e-01	1.6153e-01	4.0502e+02
46	9.9602e-03	4.2517e-01	2.2011e-01	-4.7528e-02	1.1260e+03
47	8.5007e-02	3.3215e-01	2.3129e-01	2.3633e-01	1.1528e+03
48	4.5274e-03	3.9920e-01	5.6838e-02	6.9597e-02	1.2366e+03
49	3.8386e-02	4.6373e-01	7.6399e-03	-5.5324e-01	3.8788e+02
50	7.7198e-01	1.4152e-01	-2.9726e-01	-1.3099e+00	7.6763e+02
51	3.8977e-02	3.7628e-01	4.1978e-02	2.0085e-01	5.5153e+02
52	1.7156e-01	2.2939e-01	2.7611e-02	-2.0819e-02	1.4983e+03
53	6.5363e-02	2.1327e-01	-1.3261e-02	7.3670e-02	1.7427e+03
54	2.2818e-01	3.0323e-01	-1.0619e-01	1.4031e-01	5.5242e+02
55	3.4139e-01	3.4492e-01	1.7684e-01	-1.1400e-01	1.8802e+02
56	3.3055e-01	2.2098e-02	4.4240e-01	2.9042e-02	2.1230e+03
57	1.3756e-01	3.6584e-01	-7.3485e-02	-1.1020e-01	4.6536e+02
58	4.7118e-01	9.0629e-02	-5.3604e-01	2.1978e-01	2.3911e+03
59	1.1297e-01	4.3784e-01	2.0124e-01	-3.4294e-01	2.7457e+02
60	9.1658e-02	2.8427e-01	-8.7050e-02	-1.1642e-01	1.2910e+03
61	2.6486e-01	7.1588e-01	9.4557e-01	-4.9412e-04	0.0000e+00
62	3.4844e-01	2.8401e-01	2.6699e-01	5.2232e-01	5.0147e+02
63	5.8417e-01	9.3118e-02	-4.7816e-01	1.2241e-01	2.2503e+03
64	3.2774e-02	-3.6873e-03	-2.2350e-01	1.1237e-02	3.1434e+03
65	-2.1971e-03	1.7966e-02	-1.0948e-01	-4.7589e-02	3.1040e+03
66	1.2480e-02	-2.5724e-03	-1.0956e-01	1.6778e-01	3.5533e+03
67	1.1163e-01	2.4142e-01	5.0901e-02	1.2269e-01	1.7438e+03
68	1.7582e-02	2.3255e-01	8.2481e-02	-2.9600e-02	1.7550e+03
69	9.7979e-02	2.0582e-01	1.2884e-03	1.0457e-01	1.8331e+03
70	9.7031e-03	2.0601e-01	-1.1438e-01	9.9516e-03	1.7025e+03
71	1.8702e-01	1.0204e-01	4.0885e-03	-2.8270e-01	2.2092e+03
72	1.8586e-01	1.5996e-01	7.1791e-02	-1.2695e-01	2.2321e+03
73	7.6637e-02	1.1129e-02	3.8952e-02	-1.3014e-01	3.1596e+03
74	8.6274e-02	5.1708e-01	1.2066e-01	-4.7142e-01	0.0000e+00
75	2.6061e-01	3.5619e-01	2.3461e-01	5.0261e-02	6.4265e+01
76	1.4065e-01	2.9794e-02	-1.6257e-01	-8.8374e-02	2.7753e+03
77	1.4883e-01	3.3683e-01	-2.2873e-02	-1.8859e-01	4.2245e+02
78	7.3049e-02	3.4747e-01	-2.0129e-01	1.2246e-01	1.3088e+03
79	1.6662e-01	2.5723e-01	-6.4601e-02	4.0540e-02	1.2001e+03
80	4.5694e-02	4.4202e-01	1.7671e-01	-1.6083e-01	3.6776e+02
81	1.8008e-01	1.6439e-02	-9.1508e-03	6.7201e-03	2.6103e+03
82	1.5463e-01	3.4901e-01	9.4181e-02	3.9985e-02	3.7494e+02
83	2.8675e-01	3.5924e-01	4.9024e-01	-3.9194e-01	1.8242e+03
84	2.0593e-02	2.9523e-01	1.4773e-01	-2.6582e-01	1.4597e+03
85	2.3420e-01	3.7350e-01	2.7476e-01	5.4437e-02	2.3665e+02
86	1.4307e-01	1.9709e-01	-1.3047e-01	-8.1629e-02	1.9740e+03
87	1.5341e-01	2.3295e-01	-6.1856e-02	7.1371e-02	1.4140e+03
88	1.9801e-01	3.4877e-01	1.2648e-01	1.1248e-01	3.6309e+02
89	2.8018e-01	1.4183e-01	-4.5397e-01	-1.9338e-01	1.9597e+03
90	4.5911e-01	2.9955e-01	4.3766e-01	-2.2493e-01	1.5516e+01
91	1.2387e-02	4.0385e-01	-2.6129e-02	-2.6464e-01	7.0924e+02
92	1.2680e-01	3.8912e-01	9.2905e-02	-2.8459e-03	7.1169e+02
93	7.5279e-02	3.7562e-01	3.4897e-01	-2.1470e-02	4.3989e+02
94	2.8493e-01	1.4098e-02	2.5112e-01	-1.5384e-01	2.3537e+03
95	1.0163e-01	2.1495e-01	-2.4921e-02	3.6196e-02	2.0189e+03
96	2.3538e-01	3.7961e-01	3.1047e-01	1.3872e-01	0.0000e+00
97	5.5278e-01	1.9423e-01	8.6045e-01	-5.5763e-01	2.2314e+03
98	2.2560e-01	1.6066e-01	-6.1283e-03	-6.3805e-02	2.0353e+03
99	3.0039e-01	3.4496e-01	1.8677e-01	1.5499e-01	-3.3895e+03
100	6.7604e-02	4.8736e-01	2.4836e-01	-2.2931e-01	-1.3736e+02
101	6.0962e-02	2.5046e-01	8.1816e-02	8.6206e-02	1.3457e+03
102	3.1265e-01	3.6889e-01	1.5832e-01	1.0307e-01	0.0000e+00
103	4.9965e-01	5.0373e-01	1.3230e+00	-5.9754e-01	0.0000e+00
104	6.1904e-02	3.7735e-01	-8.7439e-02	1.3372e-01	1.0091e+03
105	1.8881e-01	3.5645e-01	6.2517e-02	8.1409e-02	4.0397e+02
106	1.4311e-01	4.8655e-01	2.8786e-01	-4.7330e-01	0.0000e+00
107	2.9230e-01	7.7754e-02	2.4959e-04	1.0275e-01	2.0026e+03
108	1.0853e-01	4.3941e-01	1.1145e-01	-1.6594e-02	4.5433e+01
109	4.5834e-01	2.6012e-01	5.2426e-01	-4.4297e-01	-1.1332e+02
110	3.7543e-01	5.9483e-01	8.2426e-01	-2.3535e-01	0.0000e+00
111	3.1170e-01	9.2405e-02	4.6044e-01	-3.9387e-02	1.8422e+03
112	1.1832e-01	5.5625e-01	2.5752e-01	-2.0895e-01	0.0000e+00
113	1.8033e-01	2.5775e-01	-1.4099e-01	1.0839e-01	1.3542e+03
114	2.4433e-02	4.9508e-01	-1.1419e-01	-1.1818e-01	1.3568e+02
115	7.1890e-01	1.4330e+00	1.9602e+00	1.8026e+00	0.0000e+00
116	1.6014e-01	5.1397e-01	5.3328e-01	-3.9063e-01	0.0000e+00
117	2.4243e-01	3.6371e-01	3.6850e-01	-2.5905e-02	4.4357e+02
118	3.1133e-01	1.1601e-01	-2.9174e-01	-3.3464e-01	1.8463e+03
119	3.6186e-04	5.0409e-01	6.6656e-02	-2.7928e-01	0.0000e+00
120	5.8159e-01	1.8474e-01	4.3707e-01	1.5948e-01	3.4969e+02
121	6.3273e-02	4.5690e-01	2.1240e-03	-1.1603e-01	1.9543e+02
122	2.9019e-02	3.7650e-01	2.7269e-01	-1.0416e-01	9.4150e+02
123	1.8703e-01	5.5840e-01	5.3315e-01	-1.7749e-01	0.0000e+00
124	1.9290e-01	2.1306e-01	-1.6268e-01	-5.1890e-02	1.5888e+03
125	8.1358e-01	2.5936e-02	-4.7007e-01	-4.3076e-02	1.5322e+03
126	5.9770e-03	4.8426e-01	3.3009e-02	-2.5853e-01	1.6415e+01
127	2.2764e-01	8.6429e-02	-8.4766e-02	-4.7759e-02	2.2455e+03
128	1.0434e-01	3.7204e-01	5.3239e-03	1.5961e-01	4.8669e+02
129	-8.9842e-04	1.0193e-01	1.0919e-01	9.7629e-02	2.4493e+03
130	1.3777e-01	4.3092e-01	4.2696e-01	-7.8569e-02	4.0693e+02
131	6.2485e-02	4.4326e-01	2.6734e-01	1.1517e-01	8.0407e+02
132	3.1267e-02	7.3703e-02	1.1089e-01	-3.5879e-02	2.7129e+03
133	1.0558e-01	1.0474e-01	-1.4302e-01	-1.8508e-01	2.5336e+03
134	9.6775e-02	1.5563e-01	-1.0365e-01	-1.9402e-02	2.4185e+03
135	4.5967e-02	2.5014e-01	-4.5505e-02	6.9680e-02	1.5962e+03
136	2.7012e-02	4.1093e-01	2.2660e-02	2.4313e-01	1.2675e+02
137	4.2712e-03	4.4937e-01	-1.9269e-01	-2.0508e-01	7.9560e+02
138	1.8301e-01	1.9043e-01	2.9738e-02	-3.4045e-02	2.1530e+03
139	1.0200e-01	3.2422e-01	-3.5867e-02	2.5002e-02	1.1739e+03
140	1.0751e-01	3.1502e-01	-3.1786e-02	3.8338e-01	6.0117e+02
141	1.1754e-01	7.7434e-02	8.1031e-02	-4.8534e-02	2.9258e+03
142	1.4287e-02	3.3363e-01	-3.2499e-01	-1.0902e-01	8.6913e+02
143	8.8572e-02	1.8957e-01	-6.2271e-03	-5.2606e-03	1.9392e+03
144	9.4724e-02	4.2518e-01	1.5579e-01	-8.8679e-02	3.2860e+02
145	1.2430e-01	2.9360e-01	-1.0239e-01	3.4524e-01	1.5106e+03
146	2.6620e-01	3.5718e-01	1.4344e-01	-3.2349e-02	5.7955e+02
147	4.7188e-02	2.1628e-01	-9.2013e-02	-5.4064e-02	1.8471e+03
148	7.0228e-01	2.3608e-01	7.0218e-01	6.6486e-01	0.0000e+00
149	1.4220e-01	6.4619e-02	8.6784e-02	-3.2696e-02	2.8918e+03
150	1.4294e-01	1.1250e-01	6.6527e-02	8.6344e-02	2.4672e+03
151	1.2505e-02	4.2012e-01	-9.3865e-02	-1.7970e-01	8.6270e+02
152	1.9543e-01	2.6180e-01	-3.7243e-02	-1.2691e-01	1.3263e+03
153	2.3974e-01	1.4209e-01	-4.8324e-02	-1.7076e-01	2.0995e+03
154	2.1843e-01	2.6641e-01	7.1901e-02	1.1602e-01	1.0153e+03
155	5.6634e-03	3.1537e-01	3.4638e-02	-1.8929e-01	1.5395e+03
156	1.2115e-01	4.0891e-01	2.4753e-01	-1.2499e-01	4.4909e+02
157	1.6616e-02	5.2106e-01	-1.0082e-01	-3.6158e-01	0.0000e+00
158	4.3443e-01	3.1348e-01	4.4001e-01	-1.7069e-01	-1.7550e+02
159	7.7130e-02	3.3798e-02	1.3589e-01	9.4737e-02	2.7604e+03
160	2.8703e-01	5.7474e-02	6.9026e-02	-1.3866e-01	2.2029e+03
161	9.8992e-02	4.3208e-01	2.9523e-01	-1.5412e-01	2.8954e+02
162	8.6570e-02	4.5170e-01	2.3725e-01	-1.4875e-01	2.3229e+02
163	2.3297e-02	5.1851e-01	1.8199e-01	-5.0714e-01	0.0000e+00
164	1.7017e-01	3.3051e-01	2.3527e-02	2.8070e-01	7.7212e+02
165	1.6330e-01	4.0603e-01	2.4069e-01	-1.2785e-01	2.3262e+02
166	1.6406e-01	3.7816e-01	2.8544e-01	-6.7929e-02	2.4865e+02
167	1.0851e-01	4.1074e-01	-1.0624e-01	2.0407e-01	6.0617e+01
168	1.6489e-01	1.8899e-01	-4.5176e-02	-1.2500e-01	2.1098e+03
169	2.0672e-01	2.9064e-01	-1.9682e-01	8.6774e-02	8.7814e+02
170	3.0024e-02	2.1587e-01	9.6674e-02	-2.6437e-02	1.9226e+03
171	1.9733e-01	2.7633e-01	6.4918e-02	-2.6698e-02	8.8316e+02
172	9.5975e-02	3.9684e-01	3.9309e-02	-4.7950e-02	6.3224e+02
173	1.6480e-01	1.6608e-01	-7.4417e-02	-4.8150e-02	2.2197e+03
174	1.8792e-01	3.3715e-01	1.9166e-01	5.3177e-02	4.9934e+02
175	2.4746e-01	2.6176e-01	-1.2124e-01	-1.4082e-01	7.6491e+02
176	3.4237e-01	3.4461e-01	1.5306e-01	1.8787e-01	-2.4476e+02
177	5.7263e-02	3.3182e-01	8.6349e-02	2.0898e-01	9.3088e+02
178	2.0663e-01	3.3832e-01	-5.8988e-02	4.0827e-02	1.9423e+02
179	4.2969e-01	3.1404e-01	3.8481e-01	-3.7139e-01	9.5115e+01
180	4.1136e-02	4.8443e-01	-9.7482e-02	-2.0945e-01	4.5156e+02
181	5.9377e-02	4.9153e-01	2.6421e-01	-3.2225e-01	1.6839e+02
182	6.9071e-02	2.9632e-01	2.0979e-01	1.3788e-01	1.2078e+03
183	1.3208e-01	2.8441e-01	4.1182e-02	-1.1111e-01	1.3230e+03
184	5.4446e-01	1.3009e-01	-2.3083e-01	-4.2200e-01	1.6540e+03
185	4.0562e-02	5.1176e-01	1.1862e-01	-3.0885e-01	-1.9729e+01
186	2.8288e-01	3.2268e-01	1.9902e-01	3.3844e-03	8.0551e+02
187	5.2663e-02	2.9900e-01	2.2423e-01	6.7740e-02	1.3421e+03
188	5.4487e-02	5.0680e-01	2.7999e-01	-4.2037e-01	2.9817e+01
189	3.0220e-01	3.7001e-01	2.1108e-01	-7.5932e-02	0.0000e+00
190	1.3153e-01	8.0922e-03	3.2448e-02	3.7847e-02	2.7426e+03
191	2.6016e-01	1.9141e-02	9.3300e-02	-1.3046e-01	2.3764e+03
192	6.5044e-02	2.7466e-01	3.0670e-03	1.2370e-02	1.6556e+03
193	6.4961e-03	1.5875e-01	-6.3192e-02	-4.4988e-02	2.3719e+03
194	6.0988e-03	3.0332e-01	1.2481e-01	-1.4093e-01	1.5639e+03
195	1.3510e-01	1.0338e-01	-6.6850e-02	1.6792e-01	2.4716e+03
196	-1.2668e-03	5.4003e-02	2.1508e-01	4.8693e-02	3.2911e+03
197	3.5037e-02	3.5787e-01	-1.0251e-01	1.4426e-01	1.1518e+03
198	6.3698e-02	1.9559e-01	-8.1514e-02	-1.6050e-01	2.0038e+03
199	1.4500e-01	3.6311e-01	7.0881e-02	1.0380e-01	7.0102e+02
200	5.7409e-02	1.5475e-01	-1.2212e-01	1.4717e-01	2.2085e+03
201	1.4791e-02	2.8294e-01	4.7361e-02	5.1309e-02	1.8176e+03
202	1.8107e-01	2.8076e-01	-6.7466e-02	1.9450e-02	1.1861e+03
203	5.6732e-02	1.6787e-01	8.1343e-02	-7.4801e-02	2.3113e+03
204	1.0169e-01	1.3748e-01	7.3654e-02	7.2572e-02	2.2492e+03
205	7.9340e-02	3.6276e-01	2.4791e-01	9.9105e-02	7.5310e+02
206	1.2828e-01	3.1838e-01	-5.3300e-02	1.6795e-02	6.4016e+02
207	1.6103e-01	1.4645e-01	7.2486e-02	-6.8588e-03	2.4638e+03
208	1.1313e-01	2.5595e-01	-5.5070e-02	-1.1544e-01	1.5317e+03
209	6.5383e-02	1.8404e-01	3.1743e-02	6.4776e-02	2.0166e+03
210	2.2821e-01	2.9312e-01	-5.1235e-02	7.2384e-03	8.7965e+02
211	8.1367e-02	3.8026e-01	-1.2589e-01	1.1459e-01	8.0792e+02
212	1.4593e-01	2.4649e-01	-6.1186e-02	-8.7338e-02	1.5606e+03
213	6.7545e-02	1.3031e-01	-8.8228e-02	-5.8485e-02	2.4072e+03
214	1.9324e-02	3.4394e-01	-1.8008e-01	1.0937e-01	1.1984e+03
215	1.7042e-01	2.0405e-01	-5.0045e-02	-1.0086e-01	1.8692e+03
216	2.3169e-01	3.1761e-01	-6.3631e-02	1.4833e-01	4.4595e+02
217	4.1566e-02	1.7140e-01	8.6839e-02	2.5223e-01	2.0584e+03
218	1.1474e-01	3.8953e-01	1.9004e-01	1.4635e-01	6.6249e+02
219	2.2088e-01	2.9630e-01	1.4548e-01	-5.8130e-02	8.4815e+02
220	1.2957e-01	6.8219e-02	-2.1012e-02	7.9687e-03	2.8144e+03
221	2.3683e-01	2.7033e-01	-1.5544e-02	-1.1186e-01	9.3732e+02
222	3.5504e-02	2.9646e-01	1.1417e-01	1.7345e-01	1.4998e+03
223	6.7378e-02	5.3826e-01	2.5816e-01	-2.0464e-02	0.0000e+00
224	1.6693e-01	1.0738e-01	-9.2896e-02	-1.0402e-01	2.4833e+03
225	2.5122e-01	3.1034e-01	-1.1360e-01	2.1572e-01	6.3608e+02
226	1.1202e-01	1.9410e-01	-6.5015e-02	1.3698e-01	2.0377e+03
227	1.6918e-01	4.0931e-01	2.6200e-01	1.9669e-02	2.7721e+02
228	2.1758e-01	1.9773e-01	-8.1074e-02	-5.8806e-02	1.7797e+03
229	2.4627e-02	4.3212e-01	-1.0752e-01	-2.1348e-02	1.2001e+03
230	1.0422e-01	1.5428e-01	-3.9121e-02	3.8401e-02	2.3904e+03
231	1.5971e-01	1.5246e-01	-1.9002e-01	-1.0240e-01	2.3492e+03
232	1.3431e-01	3.7536e-01	5.3363e-02	-1.6444e-01	5.1030e+02
233	1.7682e-01	1.7873e-01	-4.7326e-02	-3.7513e-01	1.8957e+03
234	3.6583e-01	2.7943e-01	3.1343e-01	2.5611e-01	5.0100e+02
235	2.5447e-01	3.5253e-01	3.2990e-02	-5.7543e-03	-1.5221e+02
236	7.9423e-02	4.8613e-01	3.2912e-01	-3.7214e-01	5.2799e+02
237	1.9084e-01	1.7605e-01	-9.1992e-03	1.3880e-01	1.8713e+03
238	5.6541e-02	5.2843e-02	-1.2451e-01	-1.6603e-01	2.9050e+03
239	1.2972e-01	4.6081e-01	3.1998e-01	-2.4250e-01	0.0000e+00
240	7.3504e-01	1.0802e-01	-6.5452e-01	-6.4996e-02	8.6196e+02
241	3.3235e-01	3.1153e-01	2.3823e-01	4.9739e-02	4.3020e+02
242	3.4932e-01	3.2930e-01	1.6161e-01	-2.7890e-02	1.4886e+02
243	3.3802e-01	2.7592e-01	1.0159e-01	-1.8567e-01	1.6796e+02
244	1.6001e-01	3.3415e-01	1.0651e-01	1.8137e-02	3.2546e+02
245	8.4139e-02	3.9762e-01	-1.6039e-01	5.9518e-02	5.7163e+02
246	1.0295e-02	4.7799e-01	-6.2614e-02	-1.8871e-01	2.0129e+02
247	2.5608e-01	8.5222e-02	2.1955e-01	3.4955e-02	2.0346e+03
248	2.0665e-01	3.7633e-01	1.2949e-01	5.8325e-02	-3.1754e+01
249	1.4386e-01	2.0199e-01	1.3184e-02	1.0145e-02	1.8171e+03
250	1.1651e-01	2.4036e-01	-1.0747e-01	-9.8183e-02	2.0727e+03
251	7.7498e-02	5.3862e-01	2.7440e-01	-4.7701e-01	0.0000e+00
252	1.3988e-01	4.2422e-01	4.2205e-01	-1.5768e-02	2.9439e+02
253	1.4523e-01	2.3262e-01	-1.0425e-01	-3.7623e-02	1.6227e+03
254	1.4782e-01	3.9713e-01	1.7219e-01	-2.9776e-02	3.4769e+02
255	5.2598e-01	2.3774e-02	-1.8304e-02	-1.5065e-01	3.2360e+03
256	9.7881e-02	2.6016e-01	1.3964e-01	1.3565e-01	1.4069e+03
257	1.1836e-02	3.9453e-02	1.9069e-01	-7.1256e-02	2.9905e+03
258	8.8139e-02	8.3575e-02	4.9118e-02	-4.8283e-02	2.6530e+03
259	4.6438e-02	3.4141e-01	-2.9597e-02	-1.0367e-01	1.0451e+03
260	1.0371e-01	3.1264e-01	1.3652e-01	-9.4650e-03	6.6495e+02
261	6.0203e-02	1.7832e-01	1.0927e-01	-2.4380e-02	2.0246e+03
262	8.8297e-02	3.5029e-01	2.1046e-01	1.5885e-01	3.1230e+02
263	1.1334e-01	3.1605e-01	1.4375e-01	1.5300e-01	1.0721e+03
264	7.4623e-02	2.6155e-01	7.3834e-02	3.0306e-02	1.4344e+03
265	3.3153e-03	3.3956e-01	-7.6289e-02	-9.4974e-02	1.2804e+03
266	3.3623e-02	3.9502e-01	1.1891e-02	1.2498e-01	1.3350e+03
267	5.0259e-02	1.4712e-01	-7.8700e-02	-2.9984e-02	2.2407e+03
268	1.1265e-01	4.2158e-01	2.3036e-01	-6.0763e-02	5.5656e+02
269	2.0855e-01	6.4133e-01	7.5828e-01	-1.2829e-01	0.0000e+00
270	5.5203e-02	2.7204e-01	-1.0146e-01	9.7879e-02	1.2507e+03
271	1.6243e-01	2.2146e-01	-1.0561e-01	4.0275e-02	2.0004e+03
272	8.8802e-02	3.3518e-01	2.8885e-01	-5.1808e-02	1.2303e+03
273	3.6699e-02	2.3805e-01	2.0417e-03	1.2654e-01	1.4690e+03
274	2.8515e-01	2.2479e-01	1.1360e-02	7.6492e-02	1.0193e+03
275	1.3034e-01	2.1663e-01	-9.2018e-02	-1.1580e-03	1.9832e+03
276	1.3056e-01	8.3200e-02	1.0468e-01	-2.7553e-02	2.7682e+03
277	1.3907e-01	4.7285e-01	8.9959e-02	-2.4066e-01	0.0000e+00
278	1.7997e-01	3.4375e-01	7.3207e-02	-3.8446e-02	5.9979e+02
279	1.1256e-01	4.9008e-01	-8.1959e-02	-5.8131e-02	0.0000e+00
280	2.5246e-01	9.1807e-02	-1.2342e-01	-2.4488e-01	2.1296e+03
281	5.4451e-02	4.7718e-01	6.1473e-03	-1.9021e-01	1.0772e+02
282	3.1446e-02	2.8707e-01	2.0891e-01	1.6616e-01	1.6649e+03
283	1.1405e-02	3.6206e-01	1.0697e-01	9.6520e-02	9.8114e+02
284	1.6458e-01	7.2581e-02	-5.1391e-02	5.9797e-02	2.5610e+03
285	2.0355e-01	2.4080e-01	-4.6867e-02	-6.7284e-03	1.1782e+03
286	1.2210e-01	1.3839e-01	-2.6010e-02	-5.4098e-02	2.4671e+03
287	1.4751e-01	2.5653e-01	-8.2260e-02	3.3095e-02	1.5921e+03
288	2.5203e-01	3.3486e-01	1.1785e-01	6.3360e-02	1.1847e+02
289	8.1084e-02	2.0327e-01	1.6547e-02	6.5844e-02	1.9825e+03
290	2.1093e-01	1.3470e-01	-1.4297e-01	-1.6216e-01	2.2772e+03
291	1.1596e-01	1.4548e-01	-1.0432e-02	-1.0680e-02	2.3469e+03
292	2.0569e-01	2.0049e-01	6.4994e-02	3.9577e-02	1.7577e+03
293	2.9135e-03	4.1314e-01	-7.5862e-02	6.1089e-02	6.9053e+02
294	1.6828e-01	1.1684e-02	2.0683e-02	7.1049e-02	2.8062e+03
295	1.4441e-01	1.8181e-01	-9.4654e-02	4.9976e-02	2.0375e+03
296	2.4601e-02	5.2615e-01	2.5230e-01	-3.0787e-01	0.0000e+00
297	1.6879e-01	3.6783e-01	1.3482e-01	2.5188e-02	2.7584e+02
298	2.4478e-01	2.9715e-01	1.5570e-02	1.7357e-01	7.5479e+02
299	9.9208e-02	1.1304e-01	-5.4679e-02	4.0831e-02	2.5054e+03
300	9.6552e-02	1.0388e-01	-4.4500e-02	-1.4590e-02	2.6542e+03
301	2.0222e-01	1.0846e-01	-1.8849e-01	-2.0074e-02	2.4230e+03
302	2.1901e-01	3.6170e-01	1.7533e-01	-1.4295e-01	2.6786e+02
303	8.5671e-02	1.6404e-01	-3.5659e-03	-1.3349e-01	2.1877e+03
304	3.2957e-01	3.0992e-01	2.2138e-01	6.1749e-02	2.8696e+02
305	8.1571e-02	5.2250e-01	1.4675e-01	-2.8838e-01	0.0000e+00
306	2.0581e-01	1.3524e-01	-2.1821e-02	7.1703e-02	2.1597e+03
307	5.7922e-01	1.8811e-01	5.3273e-01	4.2753e-02	1.0521e+03
308	2.5377e-01	1.9319e-01	-2.7109e-01	-2.0400e-02	1.5010e+03
309	5.5638e-03	6.9710e-01	-5.6802e-03	-8.0903e-02	0.0000e+00
310	2.2863e-01	5.6818e-02	-3.5494e-02	-6.5490e-02	2.2752e+03
311	8.8188e-02	9.5471e-01	2.4497e-01	6.1751e-01	0.0000e+00
312	2.4135e-01	2.2000e-02	-3.1899e-02	2.1231e-02	2.4100e+03
313	6.1673e-02	2.5401e-01	-3.2129e-01	3.8280e-02	1.4185e+03
314	4.6787e-02	4.6982e-01	3.2700e-02	1.8975e-02	-1.1098e+02
315	1.5931e-01	3.3704e-01	1.4851e-01	6.5200e-02	2.5411e+02
316	2.1444e-02	3.9416e-01	-2.6532e-01	4.8219e-02	1.2502e+03
317	2.4919e-01	2.7681e-01	-1.5257e-01	-9.9849e-02	7.9152e+02
318	7.2410e-01	4.2414e-02	-4.3214e-01	-1.4853e-01	1.6035e+03
319	3.2242e-01	6.0200e-02	1.3448e-01	-1.3749e-01	1.8395e+03
320	2.7875e-02	1.6068e-01	-3.8909e-02	1.0608e-01	2.2313e+03
321	9.0787e-03	4.5894e-01	-7.6370e-02	-3.0813e-02	5.8220e+02
322	5.9746e-02	1.4548e-01	9.6912e-02	-4.0781e-03	2.2668e+03
323	6.9719e-02	4.2108e-01	7.3597e-02	3.6018e-02	8.4077e+02
324	1.1429e-01	-1.0531e-03	7.7056e-02	-1.3717e-01	2.7561e+03
325	3.4178e-02	1.6368e-01	-6.4538e-02	-8.4847e-03	1.9976e+03
326	1.2090e-01	2.7596e-01	1.5492e-01	-1.5578e-01	1.3524e+03
327	5.2250e-02	4.3717e-01	1.1835e-01	1.9978e-02	3.8775e+02
328	1.4352e-01	3.2914e-01	-2.5620e-02	5.9648e-02	1.5247e+03
329	3.5734e-02	1.8142e-01	-5.9663e-02	9.0793e-02	2.0409e+03
330	9.6715e-02	5.5728e-02	-9.8251e-02	5.4772e-02	2.7390e+03
331	7.2387e-02	1.6173e-01	8.7862e-02	8.1130e-03	2.2403e+03
332	1.2225e-01	1.5468e-01	-2.0338e-01	5.7589e-02	2.3996e+03
333	3.9909e-03	1.9270e-01	9.8469e-02	4.5792e-02	2.0502e+03
334	1.7503e-02	2.2225e-01	1.7503e-01	6.2637e-03	1.6167e+03
335	7.6146e-02	2.3912e-01	-1.5561e-01	1.4663e-02	1.7061e+03
336	1.3195e-01	1.8981e-01	-5.7341e-02	2.3387e-02	2.1432e+03
337	1.6367e-01	2.2528e-01	-2.0025e-01	1.6405e-02	1.8206e+03
338	1.1873e-01	4.2154e-01	2.9014e-01	1.7242e-01	1.4384e+02
339	8.1921e-02	2.7843e-01	1.3427e-02	-3.2013e-02	1.3982e+03
340	1.6239e-01	2.8935e-02	4.0385e-02	-9.3285e-02	2.7361e+03
341	1.1090e-01	1.4419e-02	1.6698e-01	-5.0212e-02	2.7824e+03
342	5.4611e-01	8.5569e-01	1.6122e+00	3.5465e-01	0.0000e+00
343	2.3157e-01	1.8501e-01	-2.1697e-01	6.0838e-02	1.5510e+03
344	1.5086e-01	3.0464e-01	2.1026e-01	1.6060e-01	7.0569e+02
345	2.4748e-01	3.2596e-01	1.2563e-02	-8.3007e-02	5.6575e+02
346	3.1048e-01	7.4341e-01	1.0836e+00	2.8808e-02	0.0000e+00
347	1.9233e-01	2.0537e-01	-1.2899e-01	9.9782e-02	1.7392e+03
348	4.4809e-03	3.7973e-01	2.0979e-01	-1.6624e-02	9.3635e+02
349	1.1758e-01	3.4065e-01	1.5231e-01	1.9779e-01	5.3637e+02
350	7.0125e-02	1.4536e-01	-3.3144e-02	-6.0896e-02	2.3974e+03
351	1.4916e-01	4.3481e-02	-7.2226e-02	-6.7531e-02	2.7538e+03
352	5.1133e-01	2.4914e-01	7.0227e-01	-5.0600e-01	4.1192e+01
353	1.5299e-01	2.0565e-01	3.0619e-03	-1.9100e-01	1.9152e+03
354	1.8351e-01	2.7305e-01	-5.6668e-02	-2.2066e-02	1.2867e+03
355	4.8977e-02	2.7333e-01	-3.5074e-01	4.2714e-02	1.2998e+03
356	4.4400e-02	4.3595e-01	2.6638e-01	-1.7799e-01	6.1300e+02
357	1.0692e-01	2.7947e-01	9.5453e-02	1.7607e-01	1.1911e+03
358	1.0195e-01	7.0385e-02	7.9339e-02	-1.7456e-01	2.7726e+03
359	1.1683e-01	2.2566e-01	-1.4082e-01	5.0953e-02	1.8528e+03
360	1.4246e-01	9.5024e-02	1.4346e-01	7.4059e-02	2.7824e+03
361	1.0046e-01	5.0139e-01	9.4526e-02	-4.3639e-01	0.0000e+00
362	1.0219e-01	2.2831e-01	1.5358e-01	1.0499e-01	1.4671e+03
363	1.8082e-01	1.2354e-01	3.9356e-02	-1.3923e-01	2.4222e+03
364	1.7253e-01	2.4866e-01	9.5668e-02	4.0849e-02	1.4450e+03
365	1.9126e-01	1.5624e-01	7.1130e-02	-5.1631e-02	2.1961e+03
366	1.6542e-01	9.0042e-02	6.0582e-02	-6.9296e-02	2.4487e+03
367	9.8013e-02	4.5827e-01	2.2053e-01	-1.1379e-01	2.6569e+02
368	3.1928e-02	5.1376e-01	-5.2329e-02	-1.7929e-01	0.0000e+00
369	1.3702e-01	2.4385e-01	-1.3304e-01	-2.2837e-01	1.8085e+03
370	1.2791e-01	5.5818e-01	3.6713e-01	-4.7581e-01	0.0000e+00
371	2.0068e-01	2.2315e-01	-2.6298e-01	-1.4424e-01	1.4598e+03
372	1.4008e-01	4.4183e-01	3.0989e-01	-7.7765e-02	0.0000e+00
373	1.5658e-01	2.8676e-01	-1.7144e-02	8.2953e-02	1.0116e+03
374	1.1386e-01	1.5976e-01	-1.7434e-02	8.5595e-02	2.3682e+03
375	3.3093e-01	4.6768e-01	1.3384e+00	-2.2358e+00	0.0000e+00
376	6.0412e-01	1.5744e-01	-3.0558e-01	5.4591e-01	1.8522e+03
377	1.0080e-01	5.6513e-01	2.7008e-01	-1.5135e-01	0.0000e+00
378	5.6739e-02	4.5764e-01	6.4495e-02	-1.0496e-01	1.7125e+02
379	1.2378e-01	5.5532e-01	2.3488e-01	-2.6312e-01	0.0000e+00
380	1.8137e-01	3.2151e-01	6.5085e-03	3.7059e-02	6.1909e+02
381	5.2326e-01	2.4669e-01	6.4508e-01	-6.7578e-01	-2.2855e+02
382	2.9812e-01	3.4061e-01	8.6926e-01	-1.3144e+00	-1.6138e+03
383	2.9780e-01	2.4077e-01	-1.0603e-01	1.1891e-01	1.4142e+03
384	1.1338e-01	4.1948e-01	1.6392e-01	-8.0693e-02	4.1224e+02
385	1.9555e-02	7.4132e-02	-1.1174e-01	4.7395e-03	2.8876e+03
386	-5.9419e-04	2.5013e-02	2.2928e-02	-1.7974e-02	3.1549e+03
387	1.4815e-01	3.8596e-01	1.5244e-01	-8.6875e-02	4.4095e+02
388	6.3710e-02	1.6840e-01	-5.1725e-02	7.3193e-03	2.0482e+03
389	1.5769e-01	3.0819e-01	-5.9436e-02	3.5053e-02	1.3398e+03
390	7.1778e-02	1.7108e-01	9.2214e-02	4.8510e-02	2.1250e+03
391	6.8061e-02	4.0334e-01	1.1118e-02	1.1328e-01	4.4429e+02
392	1.6891e-03	1.3662e-01	1.3312e-01	-9.2383e-02	2.2314e+03
393	1.8756e-02	4.0864e-01	5.1405e-02	-1.4140e-01	4.7689e+02
394	8.9013e-03	3.4796e-01	-4.6635e-02	9.2758e-02	1.3173e+03
395	1.3672e-01	3.9514e-01	2.3942e-01	1.4811e-01	1.4331e+02
396	2.7252e-02	2.2105e-01	4.5891e-02	1.7737e-02	1.8539e+03
397	2.7580e-02	1.4667e-01	-9.4335e-02	8.8938e-02	2.2364e+03
398	1.0995e-01	1.9931e-01	2.6947e-03	-2.5807e-01	2.0318e+03
399	1.2039e-03	7.3353e-02	1.4525e-01	1.5070e-01	2.4684e+03
400	1.3096e-02	1.5129e-01	2.7804e-02	1.3124e-02	2.2003e+03
401	2.4063e-01	3.8381e-02	1.2538e-01	3.0414e-02	2.3174e+03
402	8.7817e-03	1.7970e-01	-1.4534e-01	-8.4763e-02	2.0531e+03
403	2.5452e-02	1.7698e-01	-1.1976e-01	-4.1611e-02	2.1521e+03
404	1.3607e-01	1.7328e-01	-4.3027e-02	-1.6428e-01	2.2690e+03
405	6.0754e-02	3.0533e-01	-7.9867e-02	1.5168e-01	1.2459e+03
406	9.2769e-02	1.7659e-01	-7.5576e-02	1.2527e-01	2.0961e+03
407	1.0776e-01	3.5677e-02	2.4261e-02	-8.4643e-02	3.0253e+03
408	2.9363e-01	1.0411e-01	1.3430e-01	-7.8230e-02	1.9225e+03
409	7.8240e-02	2.8989e-01	5.1925e-02	1.4064e-01	1.0436e+03
410	1.5203e-01	8.4364e-02	-1.1088e-01	-1.7085e-02	2.5045e+03
411	2.9714e-01	3.3933e-01	1.5476e-01	-2.6120e-02	-2.2611e+03
412	8.7609e-03	2.3333e-01	1.0366e-01	-1.3008e-01	1.6360e+03
413	2.9951e-02	9.9922e-02	3.1540e-02	-1.4319e-01	2.5519e+03
414	6.9900e-03	3.6012e-01	-2.1870e-01	2.7983e-03	1.0433e+03
415	6.9951e-02	4.5310e-01	1.2786e-01	-2.0316e-01	7.9834e+01
416	9.0265e-02	3.1625e-01	-1.0657e-01	-2.8664e-02	1.0053e+03
417	8.9138e-02	6.6680e-02	-1.2617e-01	-8.7999e-02	2.8170e+03
418	9.6245e-02	4.1082e-01	2.1277e-01	-2.7972e-01	1.7775e+02
419	1.0946e-01	3.6789e-01	1.3074e-01	1.5386e-01	7.1337e+02
420	1.3452e-01	2.2362e-01	8.9998e-02	-4.0768e-02	1.9850e+03
421	3.3456e-02	4.5676e-01	-8.7083e-03	1.5116e-02	4.2553e+02
422	9.7841e-02	4.7050e-01	2.3875e-01	-2.4779e-01	-4.0011e+01
423	5.4466e-02	3.0722e-01	-2.5871e-02	3.5554e-01	1.4282e+03
424	1.3692e-01	1.4153e-01	-1.1413e-01	1.1632e-01	2.2406e+03
425	1.2345e-01	3.3589e-02	1.5038e-01	-5.5508e-02	2.8003e+03
426	9.3905e-02	3.7890e-01	2.0521e-01	7.3247e-02	5.2623e+02
427	4.1920e-02	3.3477e-01	-1.8045e-01	-1.3292e-01	1.4263e+03
428	3.7463e-02	1.3141e-01	-2.6694e-02	8.9238e-02	2.4953e+03
429	1.6466e-01	2.7531e-01	1.7059e-03	1.8833e-01	1.2989e+03
430	2.7881e-01	3.4409e-01	5.9824e-02	-2.1510e-02	-1.8092e+02
431	8.9962e-02	2.2182e-01	1.1455e-01	-5.9805e-02	1.5889e+03
432	1.2517e-02	4.4878e-01	5.2165e-02	-7.8534e-02	7.9231e+02
433	1.2044e-01	3.3077e-01	-3.9684e-02	-8.4539e-02	8.8918e+02
434	1.9857e-01	1.7635e-01	-1.2314e-02	-2.8041e-02	2.0190e+03
435	2.1892e-01	3.4731e-01	1.2078e-01	-1.4953e-01	4.4041e+02
436	2.5398e-01	3.7206e-01	1.0560e-01	-1.1264e-02	0.0000e+00
437	1.2745e-01	2.5907e-01	6.7767e-03	-9.2225e-02	1.5378e+03
438	1.1963e-01	3.1845e-01	2.2682e-02	4.9205e-02	1.2215e+03
439	9.2855e-02	3.8782e-01	-2.1290e-03	1.3607e-02	7.9966e+02
440	2.2806e-01	2.3241e-01	-1.1192e-01	-1.0156e-01	1.2134e+03
441	1.8801e-01	1.6943e-01	-1.9629e-01	-6.2547e-02	1.9945e+03
442	1.3762e-01	2.0742e-02	2.2889e-01	-1.2798e-02	2.7326e+03
443	1.3835e-01	1.1973e-01	-1.2226e-02	8.5400e-02	2.6508e+03
444	1.9324e-01	2.3527e-01	-8.6528e-02	-1.3634e-01	1.5373e+03
445	1.5317e-01	4.3625e-01	3.0054e-01	-6.1088e-02	0.0000e+00
446	1.9997e-01	2.7408e-01	-2.8529e-01	1.6530e-01	8.1815e+02
447	7.0960e-03	1.9494e-01	-6.7415e-03	-7.7938e-02	2.0015e+03
448	6.4379e-03	-2.5367e-03	9.6833e-02	5.0051e-02	3.3536e+03
449	1.1662e-02	5.1164e-02	2.9435e-03	4.4387e-02	3.0127e+03
450	5.5271e-02	2.5608e-01	9.8551e-02	4.6707e-02	1.5255e+03
451	2.9538e-02	4.0892e-01	1.2966e-01	-1.0440e-01	2.8337e+02
452	7.8920e-02	-1.3922e-03	8.5683e-02	5.2129e-02	2.9567e+03
453	2.2379e-02	1.1766e-01	4.4669e-02	8.3069e-04	2.4116e+03
454	7.7196e-02	8.0563e-02	1.1808e-01	8.6398e-02	2.6001e+03
455	4.6050e-02	1.2861e-01	7.0003e-02	7.7723e-02	2.3639e+03
456	1.5160e-01	1.3006e-01	-7.5322e-02	3.6904e-02	2.5359e+03
457	2.0511e-02	5.4780e-02	6.1809e-02	-7.2158e-02	2.8903e+03
458	6.8500e-03	1.4967e-01	-2.1750e-01	4.0583e-02	2.2970e+03
459	2.0208e-02	1.0545e-02	6.5649e-02	-9.0512e-03	3.4704e+03
460	1.2850e-01	1.9968e-01	-2.1639e-02	-7.3015e-02	2.1303e+03
461	1.0421e-02	3.7098e-01	4.2311e-02	1.8079e-01	1.2077e+03
462	5.4779e-02	4.0281e-01	3.0571e-02	-2.5139e-01	7.1967e+02
463	3.8820e-02	2.6102e-01	-1.6987e-02	4.3353e-02	1.6469e+03
464	1.1630e-01	1.0880e-01	-5.7785e-02	3.0954e-02	2.5153e+03
465	3.5083e-02	2.6782e-01	-1.7281e-01	4.8223e-02	1.5112e+03
466	7.9096e-02	2.2817e-01	-1.9051e-02	1.7912e-01	1.6459e+03
467	1.2092e-01	2.6398e-01	8.3390e-02	1.3987e-01	1.5432e+03
468	1.2167e-02	7.7018e-02	1.6708e-01	-1.0415e-02	2.9152e+03
469	1.6255e-01	5.4080e-01	4.9035e-01	-3.3951e-01	0.0000e+00
470	1.5037e-02	1.1010e-01	2.1399e-01	-2.3853e-02	2.5087e+03
471	1.2505e-01	4.0843e-02	-3.4807e-02	-1.8225e-02	2.8269e+03
472	9.7225e-02	2.4452e-01	-1.1355e-01	-2.1305e-02	1.6890e+03
473	4.1934e-02	4.2642e-01	8.6717e-02	-1.2984e-02	6.7010e+02
474	2.1802e-02	1.3129e-01	-3.7908e-02	1.0493e-01	2.4009e+03
475	1.6668e-02	2.8537e-01	-5.5245e-02	-1.3311e-01	1.8723e+03
476	8.3908e-02	4.5673e-01	1.8601e-01	-1.5384e-01	1.3068e+02
477	1.0037e-01	3.6659e-01	5.7925e-02	8.2983e-03	1.0069e+03
478	3.3121e-02	3.3666e-01	-8.3075e-02	1.2244e-01	1.2953e+03
479	1.7029e-01	2.3980e-01	-9.0415e-02	1.2165e-01	1.3640e+03
480	8.0113e-02	5.4047e-01	1.1983e-01	-3.3127e-01	0.0000e+00
481	2.0514e-01	5.1066e-02	-6.8437e-03	2.5340e-02	2.4165e+03
482	1.0369e-01	3.5529e-01	2.7810e-02	1.4875e-01	8.7672e+02
483	1.3688e-02	1.7988e-01	1.0431e-01	-1.5836e-02	2.0286e+03
484	5.2778e-02	3.7753e-01	3.4714e-01	-2.0854e-01	1.3560e+03
485	5.5351e-02	1.0624e-01	7.1075e-02	1.9750e-02	2.6240e+03
486	1.4908e-01	3.7266e-01	2.6034e-01	-1.4725e-02	3.7125e+02
487	8.2089e-03	2.9815e-01	3.8627e-02	2.4520e-01	1.3695e+03
488	1.3076e-01	3.1036e-01	1.4697e-01	6.7049e-02	4.2534e+01
489	7.3573e-02	6.9447e-02	-5.7438e-02	-3.1912e-02	2.6560e+03
490	4.5497e-02	2.2529e-01	4.8678e-02	2.9292e-01	1.5610e+03
491	8.1297e-03	2.4790e-01	-7.7198e-02	-1.5241e-01	1.5927e+03
492	1.3890e-02	4.8712e-01	4.7490e-02	-2.5515e-01	1.5093e+02
493	1.1513e-01	2.9056e-01	4.1611e-02	-3.8923e-02	1.1805e+03
494	6.1748e-02	4.0882e-02	1.3885e-02	-8.7437e-02	3.1117e+03
495	2.1556e-01	2.1899e-01	-2.3344e-01	-1.4996e-01	1.3248e+03
496	2.1918e-01	1.8217e-02	2.0050e-01	3.0521e-02	2.4477e+03
497	1.0697e-01	1.5988e-01	-1.5097e-01	2.6607e-02	2.4351e+03
498	2.2178e-02	5.3232e-01	-5.2426e-02	-3.2594e-01	0.0000e+00
499	1.1259e-01	1.2372e-01	-1.4476e-01	-6.7870e-04	2.7005e+03