variables="k","x","y","vx","vy","pressure"
zone i=8064 j=1
0	1.1827e-01	3.5775e-01	-7.5242e-02	2.0422e-01	8.7238e+02
1	5.0010e-02	4.0511e-01	5.1327e-02	-4.8029e-02	1.4206e+02
2	1.0426e-01	2.2494e-01	-1.7294e-01	3.1896e-01	1.2235e+03
3	1.2130e-01	2.2415e-02	5.3940e-03	7.2571e-02	2.9659e+03
4	4.2257e-02	3.2745e-01	7.1281e-02	3.2304e-01	7.5603e+02
5	1.4908e-01	1.1046e-01	6.9544e-02	1.6395e-01	2.1172e+03
6	8.4650e-02	3.2637e-01	3.4473e-01	1.9534e-01	1.2583e+03
7	2.0048e-01	2.8946e-01	-2.4135e-01	1.4456e-01	9.7695e+02
8	-1.0957e-03	4.6459e-02	3.4956e-02	-2.0451e-01	2.4518e+03
9	1.6670e-01	1.3571e-01	-5.6694e-02	-5.6897e-02	2.0686e+03
10	7.3744e-02	2.5380e-01	-1.2963e-01	1.9662e-01	8.9091e+02
11	6.3873e-02	3.2609e-01	-5.8392e-03	2.7019e-01	1.0346e+03
12	2.5970e-01	1.7212e-01	1.6918e-02	7.3925e-02	1.8825e+03
13	2.3382e-01	1.5325e-01	-2.9709e-01	-7.9911e-02	1.8612e+03
14	1.5424e-01	2.3364e-02	-2.1496e-01	-4.5572e-02	2.9869e+03
15	2.1216e-03	3.2332e-01	-2.0835e-01	-9.4104e-02	5.2709e+02
16	1.8161e-01	2.8454e-01	-1.0728e-01	7.2189e-03	9.2220e+02
17	2.8829e-01	1.9131e-02	1.5878e-01	7.0815e-02	2.6266e+03
18	1.9790e-01	3.7365e-01	2.6687e-01	-1.1187e-01	-1.7560e+03
19	8.3375e-02	2.7740e-01	-1.3524e-01	1.7002e-01	9.2548e+02
20	5.2500e-02	4.8218e-01	1.2477e-01	1.3394e-01	3.2318e+02
21	1.6269e-02	4.6693e-01	1.9705e-01	3.6575e-01	5.7829e+02
22	1.3223e-01	8.4001e-02	-3.6699e-02	3.7438e-02	2.6635e+03
23	2.1880e-01	1.9477e-01	-5.5620e-02	1.3962e-02	1.6209e+03
24	2.5927e-01	5.3728e-02	9.2918e-02	-3.2504e-02	2.5983e+03
25	-3.3725e-04	2.1024e-01	9.4990e-02	1.3057e-02	1.2906e+03
26	7.9160e-02	2.0470e-01	-1.0544e-01	5.6065e-04	1.2420e+03
27	1.5249e-01	1.7359e-01	-9.3489e-02	-8.9460e-02	1.8401e+03
28	2.6914e-01	3.0227e-01	-2.2610e-01	2.5370e-01	1.4339e+03
29	7.0109e-02	4.2686e-01	1.1302e-01	1.5244e-01	7.2851e+02
30	-5.0436e-04	1.2201e-01	3.7300e-01	-6.2963e-02	2.0313e+03
31	7.6206e-02	1.5867e-01	-2.9066e-02	-1.0136e-01	1.7327e+03
32	8.8260e-02	3.9452e-01	-8.7039e-02	4.1155e-01	5.3869e+02
33	2.3952e-01	1.6560e-01	5.6922e-02	-9.1359e-03	1.7824e+03
34	1.8614e-01	6.3006e-01	7.4453e-01	1.6139e-01	0.0000e+00
35	2.0506e-01	3.8739e-01	2.8893e-01	-9.3208e-02	0.0000e+00
36	1.0859e-01	4.5984e-01	9.2165e-02	2.9754e-01	0.0000e+00
37	2.9508e-01	3.0061e-01	1.0406e-01	2.8301e-01	2.9222e+02
38	3.7652e-01	2.7596e-01	3.0068e-01	5.4324e-01	6.3691e+02
39	8.5379e-02	4.6502e-01	1.3901e-01	8.3824e-03	6.1854e+02
40	1.8971e-01	3.6313e-01	3.3988e-02	-7.5033e-02	1.1512e+03
41	1.6616e-01	1.0561e-01	-1.1137e-01	-6.2138e-02	2.2420e+03
42	7.9710e-02	5.0883e-02	-1.3013e-01	1.9170e-02	2.6947e+03
43	2.6723e-01	9.5751e-02	4.2307e-02	-1.0473e-01	2.3612e+03
44	1.1680e-01	3.5354e-01	-3.4732e-01	-5.7310e-02	9.5838e+02
45	3.5636e-01	3.0359e-01	7.1520e-02	7.0071e-02	6.5123e+02
46	1.7004e-02	4.2074e-01	-3.0837e-01	1.6709e-01	9.1696e+02
47	6.2974e-02	3.1095e-01	3.4327e-01	3.4930e-01	9.0033e+02
48	9.5103e-03	3.8991e-01	-1.4504e-01	2.6446e-01	8.4385e+02
49	3.6186e-02	5.0503e-01	-2.8415e-03	-4.6984e-01	-1.9566e+02
50	7.9350e-01	3.1145e-01	-2.6302e-01	-2.2151e+00	0.0000e+00
51	4.1181e-02	3.5877e-01	-6.2124e-02	1.8158e-01	1.0163e+03
52	1.7354e-01	2.2649e-01	-6.6914e-02	8.8704e-02	1.1828e+03
53	6.0320e-02	2.1393e-01	8.8197e-02	-9.4112e-04	1.3057e+03
54	2.3667e-01	2.8947e-01	-1.1996e-01	1.5955e-01	8.7326e+02
55	3.4340e-01	3.6310e-01	-1.5865e-01	-2.4681e-01	0.0000e+00
56	2.9906e-01	3.0990e-02	2.0716e-01	-1.7062e-01	2.5739e+03
57	1.4744e-01	3.6666e-01	-2.0110e-01	6.4811e-02	1.1288e+03
58	5.0918e-01	7.2586e-02	-3.9449e-01	1.2256e-01	1.6881e+03
59	1.0140e-01	4.5661e-01	5.3376e-02	-1.2166e-01	3.5904e+02
60	1.0425e-01	3.0524e-01	-1.5284e-01	-3.3314e-01	5.5238e+02
61	1.8922e-01	7.0024e-01	9.4557e-01	3.9191e-01	0.0000e+00
62	3.4791e-01	2.3040e-01	-1.4483e-01	7.0385e-01	1.1450e+03
63	6.2126e-01	7.6643e-02	-6.0664e-01	1.3895e-01	7.5396e+02
64	3.7075e-02	-3.5320e-03	2.4067e-01	1.0558e-02	2.5798e+03
65	-2.1049e-03	1.4877e-02	-1.1067e-01	-1.2143e-02	2.8451e+03
66	1.6186e-02	-2.4542e-03	1.8508e-01	1.6717e-01	2.5967e+03
67	1.1761e-01	2.3625e-01	-9.1355e-02	2.2790e-02	1.1177e+03
68	1.7200e-02	2.3360e-01	2.1584e-02	3.3051e-02	1.1775e+03
69	1.0374e-01	1.9655e-01	-1.5944e-01	6.6166e-02	1.6576e+03
70	2.1877e-02	2.0147e-01	-1.6026e-01	5.1921e-02	1.2330e+03
71	1.8354e-01	1.1396e-01	5.5912e-02	-5.2478e-02	2.2355e+03
72	1.8195e-01	1.6964e-01	-2.6073e-02	-1.2131e-01	1.7352e+03
73	6.7992e-02	2.5365e-02	1.0645e-01	-1.9253e-01	2.7805e+03
74	7.6538e-02	5.3935e-01	1.3548e-01	-6.7531e-02	0.0000e+00
75	2.4219e-01	3.5467e-01	2.9079e-01	7.1352e-02	2.7996e+02
76	1.5443e-01	4.0941e-02	-1.7977e-01	-9.5725e-02	3.0475e+03
77	1.5439e-01	3.4445e-01	-1.4610e-01	-4.8650e-04	8.4972e+02
78	1.0503e-01	3.3731e-01	-5.3700e-01	8.6748e-02	7.3720e+02
79	1.7136e-01	2.4616e-01	-1.5655e-01	1.9065e-01	1.4690e+03
80	3.4885e-02	4.5149e-01	5.2023e-02	-6.6565e-02	2.8724e+02
81	1.8052e-01	1.4999e-02	9.4791e-04	4.9403e-02	2.8948e+03
82	1.5207e-01	3.4266e-01	-4.2339e-02	1.3728e-01	9.6860e+02
83	2.7742e-01	3.5728e-01	2.2731e-03	1.2333e-01	1.4001e+01
84	4.8646e-03	3.1017e-01	2.2122e-01	-1.0499e-02	6.4110e+02
85	2.2103e-01	3.7603e-01	3.0701e-02	-1.0064e-01	0.0000e+00
86	1.5479e-01	2.0157e-01	-2.5572e-01	-5.3216e-02	1.5098e+03
87	1.6387e-01	2.2884e-01	-1.9356e-01	9.6693e-02	1.1602e+03
88	1.9357e-01	3.3494e-01	4.5037e-02	1.6305e-01	5.4413e+02
89	3.0832e-01	1.3686e-01	-1.1430e-01	3.0112e-02	1.4912e+03
90	4.2851e-01	3.1593e-01	3.6394e-01	-1.9101e-01	2.7271e+02
91	4.3629e-03	4.1231e-01	2.5835e-01	1.3901e-02	5.1130e+02
92	1.2453e-01	3.7577e-01	-2.4889e-02	2.9116e-01	5.4848e+02
93	5.4611e-02	3.7495e-01	1.0929e-01	1.0659e-01	9.3622e+02
94	2.7315e-01	2.8169e-02	2.7095e-02	-2.0971e-01	2.6509e+03
95	1.0040e-01	2.1191e-01	-5.6386e-02	1.2270e-01	1.0407e+03
96	2.2015e-01	3.7317e-01	9.4991e-02	1.0092e-01	2.9727e+02
97	5.0756e-01	2.4940e-01	3.8968e-01	-6.1714e-01	2.2576e+02
98	2.2895e-01	1.6396e-01	-1.1662e-01	-3.5812e-02	1.9158e+03
99	2.9716e-01	3.4414e-01	-1.8415e-02	1.6936e-02	1.0881e+02
100	4.8729e-02	4.9707e-01	2.3638e-01	-1.1264e-02	-1.9136e+02
101	6.3804e-02	2.4725e-01	-9.5007e-02	9.4078e-02	1.1452e+03
102	3.0147e-01	3.5759e-01	2.2270e-02	1.3451e-01	2.1123e+02
103	3.9381e-01	5.3586e-01	1.3230e+00	-2.0514e-01	0.0000e+00
104	6.5418e-02	3.6514e-01	-1.1601e-01	2.0495e-01	4.8460e+02
105	1.8408e-01	3.5522e-01	1.8903e-03	-1.5118e-03	9.6077e+02
106	1.2008e-01	5.0874e-01	2.8786e-01	-8.0902e-02	0.0000e+00
107	2.9126e-01	7.0553e-02	-1.2825e-01	5.8324e-02	2.2796e+03
108	1.0140e-01	4.3540e-01	4.8186e-02	1.0006e-01	2.5876e+02
109	4.1608e-01	2.8999e-01	4.8966e-01	-2.7632e-01	5.4679e+02
110	3.0949e-01	5.9798e-01	8.2426e-01	1.5705e-01	0.0000e+00
111	2.9048e-01	9.1171e-02	2.0101e-01	6.4957e-03	2.0848e+03
112	9.7714e-02	5.5729e-01	2.5752e-01	1.8345e-01	0.0000e+00
113	1.9745e-01	2.4769e-01	-2.8866e-01	1.3627e-01	1.1999e+03
114	3.0953e-02	4.9287e-01	-1.2695e-01	1.7174e-01	7.8619e+02
115	5.6209e-01	1.2731e+00	1.9602e+00	2.1950e+00	0.0000e+00
116	1.1747e-01	5.2955e-01	5.3328e-01	1.7674e-03	0.0000e+00
117	2.2212e-01	3.6682e-01	1.3262e-01	-5.9626e-02	6.3582e+02
118	3.3703e-01	1.3995e-01	-5.3566e-01	-2.7282e-03	1.8053e+03
119	8.5090e-03	5.1807e-01	-1.9639e-01	-7.2865e-02	1.7418e+02
120	5.3998e-01	2.0494e-01	5.2506e-01	-6.4591e-01	-3.1520e+01
121	6.4040e-02	4.5580e-01	-1.4242e-01	1.8685e-01	6.1090e+02
122	3.1446e-03	3.7926e-01	-4.4526e-01	-7.5160e-02	1.1302e+03
123	1.4438e-01	5.5693e-01	5.3315e-01	2.1491e-01	0.0000e+00
124	2.0463e-01	2.1831e-01	-1.1216e-01	-6.8211e-02	1.3338e+03
125	8.4897e-01	2.6213e-02	-3.6924e-01	-2.5056e-02	1.4310e+03
126	6.0012e-03	4.9806e-01	-6.4752e-02	-7.1658e-02	3.1619e+02
127	2.3052e-01	8.8235e-02	-2.1131e-02	6.6802e-03	2.6116e+03
128	1.0448e-01	3.5521e-01	1.0499e-01	4.1500e-01	6.9325e+02
129	-8.2086e-04	9.7718e-02	1.0857e-01	1.9797e-01	2.1542e+03
130	1.1220e-01	4.2614e-01	1.9722e-01	2.0500e-01	1.6733e+02
131	4.8816e-02	4.3201e-01	1.5436e-01	1.1015e-01	5.7521e+02
132	2.6231e-02	7.6102e-02	-3.4290e-02	-6.2541e-02	2.4764e+03
133	1.1588e-01	1.1328e-01	-1.3574e-01	1.2408e-01	2.1014e+03
134	1.0833e-01	1.5929e-01	-2.3278e-01	-1.0024e-01	1.6068e+03
135	4.6887e-02	2.3889e-01	8.5428e-02	1.8408e-01	8.9766e+02
136	3.2322e-02	3.9065e-01	-1.5486e-01	1.3511e-01	1.4988e+03
137	1.0766e-02	4.5416e-01	-2.5849e-02	6.5389e-02	1.7475e+02
138	1.8240e-01	1.8436e-01	-2.5538e-02	1.5656e-01	1.5927e+03
139	1.0895e-01	3.2296e-01	1.1859e-01	-5.7042e-02	1.0199e+03
140	1.1241e-01	2.8824e-01	-1.1251e-01	3.1481e-01	1.1066e+03
141	1.1015e-01	7.3610e-02	4.3827e-02	1.3894e-01	2.6099e+03
142	3.7192e-02	3.3065e-01	-1.7227e-01	2.5340e-01	8.2505e+02
143	9.2737e-02	1.8339e-01	5.7827e-02	6.0833e-02	1.3151e+03
144	8.6823e-02	4.2178e-01	1.0447e-01	1.4371e-01	5.0927e+02
145	1.2915e-01	2.7117e-01	6.5791e-02	2.2550e-01	1.0298e+03
146	2.5971e-01	3.5974e-01	9.9343e-02	-7.7380e-02	3.9530e+02
147	6.0669e-02	2.1455e-01	-1.2196e-01	3.0824e-02	1.1883e+03
148	6.4656e-01	1.6900e-01	6.6773e-01	8.3252e-01	0.0000e+00
149	1.4173e-01	5.8524e-02	-4.9489e-02	1.4118e-01	2.7114e+03
150	1.4273e-01	1.0467e-01	-1.0070e-01	7.9410e-02	2.2787e+03
151	1.3916e-02	4.2353e-01	1.0268e-01	2.4723e-02	9.2316e+02
152	2.0295e-01	2.6433e-01	-1.4175e-01	1.5169e-01	1.0981e+03
153	2.4880e-01	1.5788e-01	-1.8454e-02	-7.6386e-02	2.0370e+03
154	2.1560e-01	2.6470e-01	2.4736e-02	-1.1597e-01	1.1276e+03
155	6.9008e-03	3.3408e-01	3.4702e-02	-1.8657e-01	7.1432e+02
156	1.1388e-01	4.1097e-01	-5.5578e-02	5.2544e-02	4.2957e+02
157	2.4737e-02	5.3542e-01	-1.0539e-01	-3.0286e-02	0.0000e+00
158	4.0619e-01	3.2248e-01	2.0386e-01	-1.2826e-01	-1.1617e+02
159	6.6679e-02	2.9990e-02	7.8996e-02	-8.9995e-02	2.7009e+03
160	2.7982e-01	6.4226e-02	1.1331e-01	-8.0469e-02	2.4855e+03
161	8.2566e-02	4.4216e-01	1.3028e-01	-4.0513e-02	1.8794e+02
162	7.3841e-02	4.4514e-01	1.9278e-01	2.8593e-01	3.5479e+02
163	9.6185e-03	5.4375e-01	1.4376e-01	-1.3054e-01	0.0000e+00
164	1.6597e-01	3.1065e-01	8.4820e-03	2.4379e-01	8.8790e+02
165	1.4408e-01	4.1338e-01	1.9185e-01	-1.2488e-02	6.8251e+02
166	1.4375e-01	3.7813e-01	1.7982e-01	2.6259e-02	8.8197e+02
167	1.2045e-01	3.9029e-01	-2.5003e-01	3.3679e-01	7.4579e+02
168	1.7113e-01	1.9564e-01	-1.5513e-01	-9.1893e-02	1.4982e+03
169	2.2219e-01	2.8092e-01	-2.2532e-01	1.1126e-01	8.9482e+02
170	1.9496e-02	2.0954e-01	2.0941e-01	2.0329e-01	1.1015e+03
171	1.9829e-01	2.7615e-01	6.4208e-02	6.4856e-02	1.3772e+03
172	9.9366e-02	4.0275e-01	-8.2274e-02	1.4499e-02	5.0307e+02
173	1.6878e-01	1.6635e-01	2.3538e-02	6.6834e-02	1.8246e+03
174	1.8747e-01	3.2947e-01	-1.5587e-01	6.6678e-02	6.5697e+02
175	2.5607e-01	2.6964e-01	-1.3545e-01	-1.2060e-01	7.1028e+02
176	3.3659e-01	3.3032e-01	2.2256e-02	1.8623e-01	2.5008e+02
177	4.6032e-02	3.1317e-01	1.4507e-01	1.9809e-01	7.0393e+02
178	2.1470e-01	3.3550e-01	-1.4543e-01	1.1351e-02	5.5369e+02
179	4.0911e-01	3.3786e-01	1.9522e-01	-1.0439e-01	0.0000e+00
180	4.6240e-02	4.8561e-01	7.8222e-02	1.2347e-01	6.6613e+02
181	4.0885e-02	5.0694e-01	2.3663e-01	3.0859e-02	-1.9786e+02
182	5.3375e-02	2.7821e-01	1.0505e-01	1.9649e-01	9.3336e+02
183	1.2288e-01	2.9309e-01	1.9374e-01	-3.0398e-02	1.0585e+03
184	5.4482e-01	1.8343e-01	3.4026e-01	-6.9591e-01	2.7688e+02
185	2.7794e-02	5.2664e-01	2.1103e-01	-1.2403e-01	1.1321e+02
186	2.6512e-01	3.2989e-01	1.3753e-01	-2.8582e-02	3.4469e+02
187	3.6914e-02	2.9771e-01	1.4699e-01	1.1451e-01	9.1014e+02
188	3.7487e-02	5.3106e-01	1.4084e-01	-2.1602e-01	-1.8804e+02
189	2.7998e-01	3.6785e-01	2.4130e-01	4.3713e-02	0.0000e+00
190	1.2859e-01	1.6613e-02	5.5845e-02	-2.3666e-01	3.0736e+03
191	2.5493e-01	2.5928e-02	2.6493e-02	-2.5633e-04	2.6122e+03
192	7.1805e-02	2.7569e-01	-1.1175e-01	1.8370e-01	9.4901e+02
193	5.9136e-03	1.5405e-01	-1.2246e-01	8.4794e-02	1.4889e+03
194	3.6400e-03	2.9821e-01	-8.7297e-02	2.3620e-01	6.8566e+02
195	1.4557e-01	9.2677e-02	-7.8821e-02	1.0928e-01	2.5586e+03
196	-1.2288e-03	5.8644e-02	2.1481e-01	-1.6968e-02	2.5283e+03
197	3.5184e-02	3.4531e-01	5.5346e-02	2.3876e-01	1.1315e+03
198	7.3892e-02	1.9419e-01	-1.1312e-01	7.5271e-02	1.3488e+03
199	1.4877e-01	3.5158e-01	-1.5721e-01	7.5716e-02	8.8616e+02
200	5.9151e-02	1.4700e-01	8.9854e-02	1.2055e-01	1.5422e+03
201	1.7024e-02	2.7791e-01	-1.3216e-01	8.2806e-02	8.1200e+02
202	1.7930e-01	2.7521e-01	-1.7225e-02	1.6804e-01	1.4434e+03
203	4.1314e-02	1.6467e-01	1.7838e-01	1.5837e-01	1.5191e+03
204	1.0292e-01	1.3463e-01	-9.8474e-02	6.7733e-02	1.8813e+03
205	7.4939e-02	3.5105e-01	2.5282e-02	1.6893e-01	1.0937e+03
206	1.4030e-01	3.2548e-01	-1.1388e-01	-1.2571e-01	8.6733e+02
207	1.5862e-01	1.4259e-01	-3.2392e-02	1.6855e-01	2.0748e+03
208	1.1609e-01	2.5485e-01	-1.2576e-01	1.1725e-01	1.1174e+03
209	6.1978e-02	1.8704e-01	1.1039e-01	-7.3099e-02	1.4291e+03
210	2.3871e-01	2.9277e-01	-1.7883e-01	-4.4166e-02	6.2784e+02
211	8.7669e-02	3.6931e-01	5.4194e-03	1.9136e-01	1.1804e+03
212	1.5108e-01	2.4534e-01	6.1788e-03	1.5149e-01	1.3937e+03
213	7.3036e-02	1.3642e-01	-1.1668e-01	-7.2251e-02	1.7152e+03
214	2.9737e-02	3.2546e-01	2.8885e-02	4.0041e-01	6.5124e+02
215	1.6541e-01	2.1390e-01	1.0832e-01	-4.4378e-03	1.5930e+03
216	2.3051e-01	3.0489e-01	7.9666e-02	1.6121e-01	8.2265e+02
217	3.8258e-02	1.4718e-01	4.4027e-02	2.8133e-01	1.5844e+03
218	1.0404e-01	3.6264e-01	5.4187e-02	4.2191e-01	6.3712e+02
219	2.0725e-01	3.0722e-01	1.8793e-01	-1.1747e-01	7.7313e+02
220	1.3259e-01	7.0864e-02	-3.7980e-02	-4.3468e-03	2.8478e+03
221	2.4351e-01	2.7738e-01	-1.3805e-01	2.2675e-02	8.4829e+02
222	2.1768e-02	2.8819e-01	2.2706e-01	-9.7024e-02	6.5833e+02
223	4.6796e-02	5.2474e-01	2.5061e-01	3.1065e-01	2.8071e+02
224	1.7874e-01	1.1507e-01	-1.2298e-01	-1.0148e-01	2.1905e+03
225	2.6195e-01	2.8983e-01	-1.0855e-01	2.0554e-01	7.5074e+02
226	1.1430e-01	1.8905e-01	7.1470e-03	8.4114e-02	1.4937e+03
227	1.5662e-01	4.0792e-01	1.0377e-01	7.4038e-02	0.0000e+00
228	2.2557e-01	2.0061e-01	-1.2221e-01	-4.2931e-03	1.5656e+03
229	4.1764e-02	4.1631e-01	-2.7305e-01	3.2656e-01	1.2236e+03
230	1.0835e-01	1.4800e-01	-1.9516e-01	7.1678e-02	2.0393e+03
231	1.7062e-01	1.5945e-01	-1.7678e-01	1.0827e-02	1.8291e+03
232	1.2799e-01	3.8348e-01	5.6473e-02	3.2921e-03	7.8029e+02
233	1.8150e-01	2.0480e-01	4.1637e-03	-2.2380e-01	1.6893e+03
234	3.3933e-01	2.6430e-01	1.9557e-01	2.3856e-02	9.4470e+02
235	2.5120e-01	3.5555e-01	2.2128e-02	-2.9902e-02	5.6185e+02
236	6.9932e-02	5.1133e-01	1.9829e-04	-2.0641e-01	1.6070e+02
237	1.9084e-01	1.6991e-01	-6.7100e-02	-5.5581e-02	1.6134e+03
238	6.1458e-02	6.4692e-02	-1.0251e-02	-2.2213e-02	2.6217e+03
239	1.0806e-01	4.6703e-01	2.2890e-01	8.6254e-02	0.0000e+00
240	7.9250e-01	1.1270e-01	-6.6612e-01	-1.1584e-02	2.5496e+02
241	3.2398e-01	3.0373e-01	1.0783e-02	9.7030e-02	6.4337e+02
242	3.4142e-01	3.3793e-01	6.1970e-02	-1.4067e-01	2.1012e+02
243	3.3542e-01	2.8138e-01	2.9613e-02	-5.6346e-02	7.4323e+02
244	1.6379e-01	3.2953e-01	-8.6624e-02	9.6025e-02	9.7554e+02
245	1.0095e-01	3.8500e-01	-2.8465e-01	2.3937e-01	2.0529e+02
246	1.5593e-02	4.8597e-01	-2.6785e-02	5.0279e-02	-3.6449e+01
247	2.4099e-01	8.1732e-02	1.4436e-01	1.1870e-01	2.6544e+03
248	2.0053e-01	3.7292e-01	1.5704e-01	-7.0374e-02	-9.5716e+02
249	1.4281e-01	1.9553e-01	-1.6987e-02	1.2954e-01	1.6754e+03
250	1.3174e-01	2.5408e-01	-2.4475e-01	-2.0230e-01	1.2461e+03
251	5.5518e-02	5.6098e-01	2.7616e-01	-7.7239e-02	0.0000e+00
252	1.1190e-01	4.1171e-01	2.3152e-01	3.2110e-01	7.9413e+01
253	1.4413e-01	2.3538e-01	9.0063e-02	-5.9003e-02	1.2868e+03
254	1.4421e-01	3.9036e-01	-1.5221e-01	2.2424e-01	4.6196e+02
255	5.3740e-01	3.6221e-02	-1.9519e-01	-8.0389e-02	2.0623e+03
256	9.1523e-02	2.4033e-01	4.7838e-02	2.9269e-01	1.0776e+03
257	1.7606e-02	4.3437e-02	-1.2197e-01	-3.5851e-03	2.7029e+03
258	7.6053e-02	7.8944e-02	1.6033e-01	5.8283e-02	2.2962e+03
259	5.0618e-02	3.5328e-01	-1.0911e-01	-1.3075e-01	8.1068e+02
260	8.8328e-02	3.0302e-01	2.2070e-01	2.9818e-01	1.2479e+03
261	5.0849e-02	1.7915e-01	1.3656e-01	2.7074e-02	1.2675e+03
262	8.4204e-02	3.3978e-01	-2.7526e-02	2.1944e-01	1.0661e+03
263	1.1005e-01	3.0573e-01	7.0350e-02	3.3734e-01	4.7184e+02
264	6.8562e-02	2.5030e-01	-1.6712e-02	2.0925e-01	1.0089e+03
265	1.1484e-02	3.4681e-01	-3.0222e-02	-8.3034e-02	6.6544e+02
266	5.5567e-02	3.8443e-01	-4.4224e-01	1.5944e-01	1.0594e+03
267	5.2845e-02	1.5271e-01	-1.1565e-01	-1.4207e-03	1.8359e+03
268	9.5848e-02	4.1409e-01	9.5910e-02	2.6363e-01	7.4675e+02
269	1.4789e-01	6.3591e-01	7.5828e-01	2.6411e-01	0.0000e+00
270	5.9608e-02	2.5418e-01	9.6690e-03	2.1332e-01	1.0978e+03
271	1.7517e-01	2.1524e-01	-1.6038e-01	3.4023e-02	1.6314e+03
272	7.2194e-02	3.3338e-01	8.3448e-02	1.1504e-01	5.4830e+02
273	3.6382e-02	2.2134e-01	1.6765e-02	1.8409e-01	1.1354e+03
274	2.8428e-01	2.1047e-01	2.8727e-02	1.1284e-01	1.2436e+03
275	1.3954e-01	2.1874e-01	-1.2417e-01	-3.0086e-02	1.4202e+03
276	1.2443e-01	8.5219e-02	6.4491e-02	-2.7436e-02	2.5914e+03
277	1.3189e-01	4.7646e-01	8.9756e-02	1.5131e-01	0.0000e+00
278	1.7420e-01	3.4380e-01	-4.5731e-02	2.6680e-02	1.0622e+03
279	1.2008e-01	4.7905e-01	-9.6876e-02	3.3379e-01	0.0000e+00
280	2.6579e-01	1.1312e-01	-1.5665e-01	-2.2297e-01	2.0819e+03
281	5.4332e-02	4.7518e-01	-5.3779e-02	2.0877e-01	-8.1391e+01
282	1.1247e-02	2.7693e-01	2.4722e-01	9.9887e-02	1.0091e+03
283	4.1771e-03	3.5097e-01	-2.5873e-01	2.6379e-01	6.3177e+02
284	1.6738e-01	7.1936e-02	-1.0479e-01	5.9700e-02	2.6840e+03
285	2.1505e-01	2.4235e-01	-1.8615e-01	-4.3027e-02	1.1736e+03
286	1.2768e-01	1.4960e-01	-1.5748e-01	-1.6727e-01	1.9739e+03
287	1.5070e-01	2.6085e-01	-2.4450e-02	-8.7219e-02	1.2325e+03
288	2.3537e-01	3.3230e-01	1.8883e-01	6.8879e-02	5.3483e+02
289	7.8717e-02	1.9407e-01	-1.0726e-02	2.1885e-01	1.3990e+03
290	2.2183e-01	1.4820e-01	-1.0314e-01	-7.1100e-02	2.1927e+03
291	1.1730e-01	1.3925e-01	-2.3766e-02	1.2017e-01	1.8789e+03
292	2.0161e-01	2.0096e-01	6.7367e-02	8.9241e-03	1.4732e+03
293	1.8907e-03	3.9903e-01	6.1795e-02	2.8117e-01	1.0552e+03
294	1.6432e-01	1.5991e-02	-1.5873e-03	-1.2485e-01	3.1617e+03
295	1.5437e-01	1.7298e-01	-1.6810e-01	1.4015e-01	1.7867e+03
296	5.8788e-03	5.3559e-01	1.8234e-01	5.2939e-02	0.0000e+00
297	1.6703e-01	3.6469e-01	-1.1368e-01	-4.4046e-02	8.4240e+02
298	2.4620e-01	2.8918e-01	-5.9384e-02	2.9761e-02	6.7382e+02
299	1.0262e-01	1.0800e-01	-7.8476e-02	2.5893e-02	2.3063e+03
300	1.0038e-01	1.0790e-01	-4.4998e-02	-1.1305e-01	2.2679e+03
301	2.1867e-01	1.0796e-01	-1.8711e-01	3.2614e-02	2.5085e+03
302	2.1095e-01	3.7337e-01	7.0279e-02	-2.0438e-01	9.2595e+02
303	8.4091e-02	1.7424e-01	1.4926e-02	-2.1776e-02	1.5579e+03
304	3.1887e-01	3.0034e-01	6.5948e-02	1.3846e-01	8.0254e+02
305	6.8978e-02	5.2845e-01	1.7897e-01	1.4963e-01	0.0000e+00
306	2.1413e-01	1.3535e-01	-2.2145e-01	3.6194e-03	2.4383e+03
307	5.2478e-01	2.2491e-01	6.8051e-01	-6.7018e-01	3.6616e+01
308	2.7305e-01	1.9118e-01	-8.5430e-02	2.0042e-02	1.4890e+03
309	6.0182e-03	6.8790e-01	-5.6802e-03	3.1150e-01	0.0000e+00
310	2.3276e-01	6.3198e-02	-1.0088e-01	-4.0272e-02	3.0044e+03
311	6.8590e-02	8.8963e-01	2.4497e-01	1.0099e+00	0.0000e+00
312	2.4359e-01	1.2013e-02	2.0132e-02	4.8714e-02	3.0028e+03
313	8.5013e-02	2.4553e-01	-1.9003e-01	8.6663e-02	8.9973e+02
314	4.5745e-02	4.5928e-01	8.8108e-02	2.0327e-01	1.8073e+02
315	1.6089e-01	3.2729e-01	-9.5607e-02	1.6948e-01	1.1695e+03
316	1.7754e-02	3.7492e-01	3.2149e-01	2.6659e-01	6.7892e+02
317	2.5884e-01	2.8593e-01	-1.0112e-01	-6.9501e-02	9.9782e+02
318	7.5839e-01	5.0038e-02	-5.4200e-01	-5.5466e-02	9.0612e+02
319	3.0402e-01	7.5008e-02	1.4236e-01	-2.2079e-01	2.1704e+03
320	3.0367e-02	1.5490e-01	-8.4297e-02	8.3161e-02	1.4547e+03
321	8.2364e-03	4.4948e-01	6.6292e-02	2.4313e-01	3.7232e+02
322	5.5962e-02	1.4337e-01	8.5244e-02	-4.1282e-02	1.5563e+03
323	7.1246e-02	4.0084e-01	-1.3966e-01	3.7385e-01	7.3279e+02
324	1.0684e-01	-9.7668e-04	1.6062e-01	-1.3795e-01	2.8141e+03
325	3.4007e-02	1.6268e-01	-2.2524e-02	1.7128e-01	1.4309e+03
326	1.0958e-01	2.8081e-01	7.0579e-02	-4.0600e-02	1.0962e+03
327	4.6815e-02	4.3395e-01	1.3462e-01	1.1519e-02	6.9787e+02
328	1.3559e-01	3.1156e-01	1.2118e-01	2.8774e-01	5.6732e+02
329	4.2206e-02	1.7243e-01	-1.6089e-01	1.4994e-01	1.4683e+03
330	1.0025e-01	5.4842e-02	-4.7527e-02	1.3459e-02	2.7568e+03
331	7.2082e-02	1.5566e-01	1.3946e-02	1.0123e-01	1.7156e+03
332	1.4188e-01	1.4984e-01	-2.1897e-01	5.7026e-02	2.0682e+03
333	4.3928e-03	1.8871e-01	-5.0178e-02	1.6149e-02	1.2383e+03
334	5.5995e-03	2.2442e-01	-1.3815e-02	1.1374e-02	1.1484e+03
335	8.9362e-02	2.3730e-01	-2.1634e-01	8.3268e-02	1.1700e+03
336	1.4138e-01	1.8778e-01	-1.3866e-01	9.4601e-02	1.6506e+03
337	1.8393e-01	2.2088e-01	-2.7586e-01	-2.0746e-02	1.4626e+03
338	1.0512e-01	3.9595e-01	1.1980e-01	4.2314e-01	5.8792e+02
339	7.7886e-02	2.6315e-01	1.3509e-01	3.3143e-01	9.0377e+02
340	1.6532e-01	3.2601e-02	2.7982e-02	5.9334e-02	2.8314e+03
341	1.0688e-01	2.0320e-02	-1.5422e-02	-1.1500e-01	3.0134e+03
342	4.1713e-01	8.1164e-01	1.6122e+00	7.4705e-01	0.0000e+00
343	2.4616e-01	1.7969e-01	-2.0770e-01	8.6378e-02	1.6144e+03
344	1.4528e-01	2.9341e-01	-1.4809e-01	1.3527e-01	1.3233e+03
345	2.4301e-01	3.2983e-01	7.5165e-02	2.2392e-02	5.8965e+02
346	2.2379e-01	7.2543e-01	1.0836e+00	4.2121e-01	0.0000e+00
347	1.9676e-01	1.9341e-01	2.0312e-02	1.5896e-01	1.5435e+03
348	9.3755e-03	3.7201e-01	-3.0702e-02	9.8146e-02	8.8475e+02
349	1.0839e-01	3.2280e-01	2.5953e-01	1.2639e-01	1.1188e+03
350	6.9047e-02	1.4673e-01	8.8194e-02	1.0878e-01	1.6200e+03
351	1.5419e-01	4.4007e-02	-4.6775e-03	-5.2100e-03	3.0396e+03
352	4.5864e-01	2.8224e-01	4.8989e-01	-3.4668e-01	-1.8337e+02
353	1.6335e-01	2.1341e-01	-1.3887e-01	5.4267e-02	1.6458e+03
354	1.8818e-01	2.5825e-01	1.2641e-02	2.4894e-01	1.1651e+03
355	7.6747e-02	2.6286e-01	-3.3121e-01	1.3228e-01	7.2035e+02
356	2.9086e-02	4.4879e-01	1.0790e-01	-1.1332e-01	6.7286e+02
357	1.0216e-01	2.6480e-01	1.0370e-01	1.6555e-01	1.0215e+03
358	9.8053e-02	8.2687e-02	3.4425e-02	-1.9041e-01	2.4423e+03
359	1.2458e-01	2.1602e-01	-1.2971e-01	1.4591e-01	1.4712e+03
360	1.4498e-01	8.9662e-02	-4.6457e-02	9.8839e-02	2.5730e+03
361	9.4602e-02	5.2301e-01	7.3987e-02	-7.9594e-02	0.0000e+00
362	9.2519e-02	2.1827e-01	1.0490e-01	1.6697e-01	1.2798e+03
363	1.8822e-01	1.3296e-01	-1.4279e-01	-4.5266e-02	2.1911e+03
364	1.6873e-01	2.3474e-01	-4.2806e-02	2.2780e-01	1.2831e+03
365	1.9017e-01	1.5651e-01	-1.9785e-02	6.9284e-03	2.1538e+03
366	1.7084e-01	1.0036e-01	-1.6042e-01	-1.3409e-01	2.4570e+03
367	8.4431e-02	4.5158e-01	5.2447e-02	2.2855e-01	3.5754e+02
368	3.0898e-02	5.1456e-01	2.0443e-01	2.8528e-01	3.6903e+02
369	1.4298e-01	2.6247e-01	-4.1091e-02	-1.1183e-01	1.2414e+03
370	9.8544e-02	5.8056e-01	3.6713e-01	-8.3407e-02	0.0000e+00
371	2.2463e-01	2.3085e-01	-3.0161e-01	2.2267e-03	1.1566e+03
372	1.2166e-01	4.3849e-01	1.3980e-01	1.1332e-01	5.0775e+02
373	1.6045e-01	2.8223e-01	-1.3077e-01	6.7945e-02	1.1479e+03
374	1.2275e-01	1.5568e-01	-5.3566e-02	1.1862e-01	1.8149e+03
375	2.2386e-01	6.3087e-01	1.3384e+00	-1.8434e+00	0.0000e+00
376	6.6942e-01	1.4517e-01	-1.2077e+00	1.6084e-01	-5.5465e+02
377	7.9191e-02	5.6156e-01	2.7008e-01	2.4105e-01	0.0000e+00
378	5.5314e-02	4.5898e-01	-3.8635e-02	1.0518e-01	3.9099e+02
379	1.0499e-01	5.6069e-01	2.3488e-01	1.2928e-01	0.0000e+00
380	1.8256e-01	3.1003e-01	-1.9861e-02	1.8011e-01	9.6212e+02
381	4.7537e-01	2.9002e-01	6.0122e-01	-3.2969e-01	1.6643e+03
382	2.0177e-01	4.9315e-01	1.2664e+00	-1.9063e+00	0.0000e+00
383	3.0590e-01	2.3055e-01	-2.0642e-01	3.1350e-01	8.3473e+02
384	1.0341e-01	4.1176e-01	2.0624e-04	2.5755e-01	4.2053e+02
385	2.3210e-02	6.5678e-02	-6.3770e-03	1.5529e-01	2.5214e+03
386	-5.4102e-04	3.2221e-02	2.1202e-02	-1.7883e-01	2.5886e+03
387	1.4168e-01	3.8422e-01	-6.9258e-02	1.4769e-01	7.6624e+02
388	6.3029e-02	1.6812e-01	1.0839e-01	-9.2532e-03	1.3557e+03
389	1.5249e-01	3.0101e-01	8.4706e-02	1.0794e-01	1.2178e+03
390	7.0201e-02	1.6717e-01	5.1306e-02	4.3801e-02	1.4204e+03
391	6.8508e-02	3.9053e-01	-2.1378e-02	2.8732e-01	3.5863e+02
392	6.0166e-03	1.3709e-01	2.7666e-02	5.6409e-02	1.7172e+03
393	7.0894e-03	4.1120e-01	3.1409e-01	9.5526e-02	6.2244e+02
394	1.7268e-02	3.4017e-01	-1.9302e-01	1.1288e-01	7.6611e+02
395	1.1846e-01	3.7238e-01	2.4698e-01	3.9931e-01	8.7751e+02
396	2.3818e-02	2.1592e-01	9.4579e-02	1.5244e-01	1.0408e+03
397	3.1588e-02	1.3754e-01	-2.2254e-02	1.7540e-01	1.8645e+03
398	1.1050e-01	2.1401e-01	8.4808e-02	-9.1011e-02	1.1151e+03
399	2.9938e-03	6.9296e-02	-8.4882e-02	-6.5786e-02	2.4969e+03
400	7.3453e-03	1.4956e-01	1.1732e-01	2.1158e-02	1.7197e+03
401	2.2844e-01	3.5525e-02	9.7207e-02	8.4628e-02	2.8896e+03
402	1.9413e-02	1.8474e-01	-1.7873e-01	3.2577e-02	1.3958e+03
403	3.2031e-02	1.7381e-01	-8.8581e-03	3.1016e-02	1.4425e+03
404	1.4241e-01	1.8030e-01	-8.3352e-02	1.0918e-02	1.6517e+03
405	6.6695e-02	3.0283e-01	-1.1313e-01	1.2178e-02	8.6870e+02
406	1.0008e-01	1.6347e-01	-4.8787e-02	2.7806e-01	1.4984e+03
407	1.1372e-01	4.2714e-02	-1.0800e-01	-1.3026e-01	2.8437e+03
408	2.9612e-01	1.1248e-01	-2.5899e-02	-3.8001e-02	2.2278e+03
409	7.1571e-02	2.7993e-01	7.7312e-02	1.7060e-01	9.7723e+02
410	1.6177e-01	8.9605e-02	-1.0932e-01	-7.9844e-02	2.5229e+03
411	2.8140e-01	3.4277e-01	1.1074e-01	-9.6932e-03	7.5954e+01
412	9.2561e-03	2.4422e-01	5.4851e-02	-1.9906e-01	9.5001e+02
413	3.6304e-02	1.0038e-01	-1.3222e-01	3.9001e-02	2.2226e+03
414	2.1652e-02	3.5103e-01	-2.0158e-01	2.8858e-01	7.1130e+02
415	5.9122e-02	4.5667e-01	9.7256e-02	8.8995e-02	2.6625e+02
416	1.0115e-01	3.0655e-01	-1.4054e-01	2.4381e-01	4.7081e+02
417	1.0205e-01	7.5406e-02	-1.9352e-01	-4.1030e-02	2.6866e+03
418	8.4863e-02	4.1821e-01	1.6729e-01	9.1527e-02	3.5776e+02
419	1.0132e-01	3.4391e-01	2.0962e-01	3.5364e-01	5.3062e+02
420	1.3784e-01	2.1888e-01	-9.5048e-02	1.1630e-01	1.4235e+03
421	3.6075e-02	4.4924e-01	-1.4949e-01	1.9603e-01	1.1072e+03
422	8.2583e-02	4.8320e-01	1.6961e-01	2.4911e-02	-2.7881e+02
423	5.2167e-02	2.9237e-01	1.1786e-01	1.6554e-01	9.3682e+02
424	1.3939e-01	1.3406e-01	6.6204e-02	1.2077e-01	2.1593e+03
425	1.1298e-01	3.7346e-02	1.1089e-01	-7.8535e-02	2.9841e+03
426	6.9358e-02	3.7526e-01	4.3466e-01	3.4948e-02	4.2309e+02
427	5.7368e-02	3.4133e-01	-1.4296e-01	-3.9887e-03	6.5494e+02
428	3.4517e-02	1.2446e-01	2.8314e-02	7.2991e-02	1.8465e+03
429	1.6884e-01	2.6370e-01	-8.8402e-02	1.1646e-01	1.0639e+03
430	2.7209e-01	3.4683e-01	1.1086e-01	-1.6387e-02	6.3615e+02
431	8.7681e-02	2.2519e-01	8.7586e-03	-4.6424e-02	1.2242e+03
432	4.7527e-03	4.4239e-01	-2.9761e-01	2.3770e-01	7.1381e+02
433	1.3693e-01	3.2997e-01	-3.1580e-01	-3.8222e-02	7.8372e+02
434	2.0050e-01	1.6944e-01	2.1998e-02	1.3999e-01	1.7745e+03
435	2.1349e-01	3.5738e-01	1.2424e-02	-5.2885e-02	9.9242e+02
436	2.4161e-01	3.7474e-01	2.1285e-01	-8.4373e-02	0.0000e+00
437	1.3387e-01	2.5708e-01	-7.6693e-02	1.5752e-01	1.2587e+03
438	1.2714e-01	3.1699e-01	-3.5852e-01	8.9877e-02	1.0776e+03
439	9.4063e-02	3.8450e-01	-6.4699e-02	2.6133e-02	4.1829e+02
440	2.4088e-01	2.3849e-01	-1.9985e-01	-8.4292e-02	1.2587e+03
441	2.0156e-01	1.7892e-01	-6.1327e-02	-5.6658e-02	1.8559e+03
442	1.2436e-01	3.2342e-02	7.5674e-02	-2.0309e-01	3.0184e+03
443	1.4175e-01	1.1601e-01	-1.4946e-01	3.8436e-02	2.3190e+03
444	1.9418e-01	2.3941e-01	-1.7708e-02	-4.1683e-03	1.4270e+03
445	1.3348e-01	4.2769e-01	1.7398e-01	2.3782e-01	0.0000e+00
446	2.2212e-01	2.6025e-01	-2.7750e-01	1.0592e-01	1.2230e+03
447	5.1504e-03	2.0132e-01	-1.8914e-02	2.0407e-03	1.3353e+03
448	8.1184e-03	-2.4118e-03	-2.3286e-01	4.9112e-02	2.8897e+03
449	9.1090e-03	4.0824e-02	9.0473e-02	2.2407e-01	2.4033e+03
450	5.4009e-02	2.6165e-01	3.3104e-02	-2.6056e-02	8.4817e+02
451	2.0156e-02	4.1500e-01	5.2268e-02	3.5891e-02	8.6394e+02
452	7.2535e-02	-1.3076e-03	-2.6426e-02	5.1757e-02	2.5855e+03
453	1.4541e-02	1.1593e-01	1.2495e-01	1.0190e-01	1.7552e+03
454	7.6955e-02	7.8003e-02	-1.0987e-02	1.9828e-02	2.3224e+03
455	4.1563e-02	1.2660e-01	6.3094e-02	-2.9503e-02	1.8725e+03
456	1.5628e-01	1.2527e-01	2.7718e-02	-2.1214e-02	2.3296e+03
457	1.6153e-02	5.9190e-02	5.2841e-04	-2.1766e-02	2.6071e+03
458	1.3757e-02	1.5069e-01	-9.5873e-02	-2.8962e-02	1.6705e+03
459	9.2505e-03	1.4210e-02	8.6718e-02	-5.4394e-02	2.7295e+03
460	1.3117e-01	2.0173e-01	3.7078e-02	4.5948e-02	1.3768e+03
461	4.7869e-03	3.6087e-01	1.8757e-01	1.8713e-01	1.1023e+03
462	4.8184e-02	4.1539e-01	1.3585e-01	7.7096e-02	9.8455e+02
463	4.2035e-02	2.5154e-01	-1.2776e-01	1.0740e-01	9.4299e+02
464	1.2682e-01	1.0584e-01	-4.3789e-02	1.6169e-02	2.4416e+03
465	5.4023e-02	2.6343e-01	-2.0361e-01	1.4592e-01	8.4927e+02
466	7.2581e-02	2.1184e-01	4.7509e-02	2.7598e-01	1.0868e+03
467	1.1010e-01	2.5436e-01	7.4036e-03	2.2253e-01	9.8088e+02
468	7.3379e-03	8.2812e-02	-1.8806e-02	-4.2226e-02	2.3697e+03
469	1.2332e-01	5.5228e-01	4.9035e-01	5.2891e-02	0.0000e+00
470	5.6843e-03	1.0709e-01	-2.8935e-02	1.3905e-02	2.1800e+03
471	1.2930e-01	3.9214e-02	2.5044e-03	1.0983e-01	3.0705e+03
472	1.0157e-01	2.4439e-01	-1.3396e-01	9.3131e-02	1.2079e+03
473	3.9483e-02	4.0703e-01	-8.5252e-02	5.1174e-01	6.5167e+02
474	2.5322e-02	1.2342e-01	1.6063e-02	9.4945e-02	1.8818e+03
475	2.2806e-02	3.0002e-01	-2.5938e-02	-1.2161e-01	1.0369e+03
476	7.4073e-02	4.5403e-01	1.6349e-01	1.4322e-01	1.2789e+02
477	8.8135e-02	3.4681e-01	2.2826e-03	4.1829e-01	9.8550e+02
478	3.9023e-02	3.1322e-01	-8.7696e-02	4.8283e-01	5.0095e+02
479	1.8478e-01	2.3696e-01	-2.3781e-01	5.0671e-02	1.6156e+03
480	7.0434e-02	5.5122e-01	1.2537e-01	6.6290e-02	0.0000e+00
481	2.0865e-01	4.5962e-02	-7.6368e-02	1.2283e-01	2.9443e+03
482	9.9791e-02	3.3716e-01	6.5393e-02	1.9161e-01	1.0060e+03
483	6.7829e-03	1.8242e-01	4.8812e-02	-5.4542e-02	1.3500e+03
484	3.3003e-02	3.8845e-01	2.8873e-02	-5.1590e-02	1.6857e+03
485	5.1607e-02	1.0992e-01	4.1453e-02	-4.1476e-02	2.0038e+03
486	1.3492e-01	3.7057e-01	1.2109e-01	1.1387e-01	9.4100e+02
487	7.6431e-03	2.9239e-01	-5.6529e-02	-1.4365e-01	6.3774e+02
488	1.2110e-01	3.0294e-01	8.6922e-02	2.4128e-01	7.0862e+02
489	8.1925e-02	6.6564e-02	-2.2824e-01	5.0741e-02	2.5813e+03
490	4.6334e-02	2.0416e-01	-7.0246e-03	1.3406e-01	1.3037e+03
491	1.0057e-02	2.5877e-01	-1.4314e-01	-2.8543e-02	9.6430e+02
492	1.1889e-02	4.9823e-01	-2.7212e-02	-1.8723e-02	3.3083e+02
493	1.2711e-01	2.8497e-01	-2.3520e-01	1.9705e-01	9.7896e+02
494	6.7899e-02	4.5385e-02	-2.6664e-01	-4.4664e-02	2.6762e+03
495	2.2997e-01	2.2564e-01	-1.4568e-01	4.1447e-02	1.2432e+03
496	2.0803e-01	1.8960e-02	1.0341e-01	6.5951e-02	2.9141e+03
497	1.1945e-01	1.6393e-01	-1.2904e-01	1.0311e-01	1.8708e+03
498	2.6530e-02	5.4283e-01	-6.9916e-02	6.3537e-02	0.0000e+00
499	1.1855e-01	1.2506e-01	-5.3236e-02	-7.8339e-03	2.2730e+03
500	1.0656e-01	4.5972e-01	-1.0702e-01	1.1480e-01	0.0000e+00