variables="k","x","y","vx","vy","pressure"
zone i=8064 j=1
0	2.0032e-01	3.0964e-01	2.5774e-01	-2.4617e-01	9.6338e+02
1	4.8332e-02	3.6204e-01	3.2057e-02	-3.3351e-01	5.9046e+02
2	7.0720e-02	2.6866e-01	4.1446e-02	-7.5481e-02	1.4351e+03
3	1.2579e-01	7.9573e-03	2.1801e-01	-1.6637e-01	3.5102e+03
4	5.5713e-02	2.9925e-01	-8.2110e-02	-3.1690e-01	1.4442e+03
5	1.9362e-01	1.0063e-01	2.7420e-01	-6.9277e-02	3.1405e+03
6	1.5726e-01	3.1836e-01	2.4377e-01	-1.1683e-01	9.0158e+02
7	2.1408e-01	2.7383e-01	1.9166e-01	-1.3123e-01	1.3051e+03
8	-1.3353e-03	4.9087e-02	3.4706e-02	-4.3304e-02	3.3565e+03
9	1.9970e-01	7.5124e-02	8.5235e-02	-1.9125e-01	3.3319e+03
10	1.1446e-01	2.5948e-01	2.0034e-01	-2.3256e-01	1.5431e+03
11	8.5262e-02	3.1263e-01	2.0389e-01	-2.0100e-01	1.3360e+03
12	3.1256e-01	1.4064e-01	3.1452e-01	-2.3306e-01	2.9857e+03
13	2.4412e-01	9.7270e-02	1.5994e-01	-2.9357e-01	3.1787e+03
14	1.7689e-01	1.7050e-02	1.9052e-01	-7.2103e-02	3.4245e+03
15	7.9899e-02	2.9869e-01	1.1467e-02	-1.1898e-01	1.5407e+03
16	1.9782e-01	2.6173e-01	2.0003e-02	-1.5923e-01	1.5130e+03
17	3.8940e-01	2.5983e-02	5.3397e-01	3.1475e-02	3.7041e+03
18	3.5360e-01	3.7533e-01	5.1520e-01	-8.2648e-02	8.1720e+02
19	8.0991e-02	2.5812e-01	1.4274e-01	-1.2437e-01	1.5963e+03
20	1.3115e-01	3.4661e-01	2.4140e-01	-3.9797e-01	7.9362e+02
21	2.3238e-02	4.0757e-01	-2.3880e-02	-5.9000e-01	0.0000e+00
22	1.0480e-01	9.4190e-02	5.6187e-02	-8.0999e-03	2.9421e+03
23	2.0950e-01	1.6872e-01	1.6950e-01	-4.9508e-03	2.3850e+03
24	3.5121e-01	3.0218e-02	4.9825e-01	-5.4943e-02	3.9221e+03
25	-4.9593e-04	1.9641e-01	9.5561e-02	-2.0795e-01	2.3260e+03
26	7.5883e-02	1.8277e-01	8.4347e-02	-1.5321e-01	2.1623e+03
27	1.6008e-01	1.5433e-01	1.6600e-01	-9.6044e-02	2.5386e+03
28	2.6162e-01	2.6982e-01	1.5086e-01	-2.6148e-01	1.2083e+03
29	1.7213e-01	3.6523e-01	4.7465e-01	-3.7285e-01	3.7016e+02
30	-6.9977e-04	1.1070e-01	3.7294e-01	-3.0516e-02	2.7737e+03
31	9.8877e-02	1.2069e-01	1.2309e-02	-1.4127e-01	2.8297e+03
32	1.5202e-01	3.3292e-01	2.9817e-01	-3.8936e-01	1.0539e+03
33	2.7203e-01	1.0194e-01	1.2748e-01	-2.0616e-01	3.2935e+03
34	4.5419e-01	3.7033e-01	7.5431e-01	-1.5565e+00	0.0000e+00
35	3.7075e-01	4.1265e-01	8.2872e-01	1.5954e-01	0.0000e+00
36	2.4758e-01	3.8554e-01	4.8642e-01	-3.0437e-01	0.0000e+00
37	3.7120e-01	3.5210e-01	6.5200e-01	2.6115e-01	4.6134e+02
38	5.4905e-01	2.5404e-01	5.2734e-01	-4.8989e-01	2.2698e+02
39	3.0761e-01	3.9822e-01	9.0638e-01	-3.1134e-01	0.0000e+00
40	1.9835e-01	3.0130e-01	1.5224e-01	-2.7965e-01	9.0225e+02
41	1.6138e-01	8.8492e-02	1.6845e-01	-7.1623e-02	3.1918e+03
42	7.2496e-02	2.2483e-02	1.5084e-01	-3.0366e-02	3.2096e+03
43	3.6325e-01	3.0310e-02	4.8948e-01	-1.6281e-01	4.0659e+03
44	9.2455e-02	2.8976e-01	1.2646e-01	-3.2592e-01	1.3654e+03
45	5.3472e-01	2.9377e-01	7.4603e-01	-4.3981e-01	7.6965e+01
46	5.4493e-03	3.2563e-01	2.7575e-01	-2.8397e-01	1.1195e+03
47	1.3264e-01	3.4509e-01	3.3726e-01	-2.5232e-01	8.2111e+02
48	1.7212e-03	3.6888e-01	8.1184e-02	-2.7621e-01	5.5656e+02
49	7.5064e-02	3.4932e-01	2.2511e-01	-2.7423e-01	8.0396e+02
50	7.0842e-01	7.5341e-02	-1.5294e-01	4.9701e-02	2.7462e+03
51	4.7703e-02	3.4633e-01	1.3149e-01	-2.1127e-01	6.7008e+02
52	1.7666e-01	1.9262e-01	1.4756e-01	-2.3091e-01	2.1724e+03
53	3.9593e-02	1.9500e-01	1.1245e-01	-2.1601e-01	2.1339e+03
54	2.3629e-01	2.8535e-01	1.0654e-01	-2.3158e-01	1.2962e+03
55	4.3240e-01	3.2464e-01	4.2966e-01	-1.0754e-01	7.9331e+02
56	4.6112e-01	8.2073e-02	3.7465e-01	3.6770e-01	3.5433e+03
57	1.6143e-01	3.3167e-01	2.2242e-01	-1.4062e-01	8.8515e+02
58	3.8028e-01	2.3467e-01	1.2542e-01	6.4002e-01	1.8658e+03
59	2.1980e-01	3.5954e-01	5.1470e-01	-2.3442e-01	2.9951e+02
60	8.6151e-02	2.5137e-01	-1.1439e-01	-1.5605e-01	1.5577e+03
61	5.2962e-01	5.2339e-01	9.4557e-01	-1.3739e+00	0.0000e+00
62	5.0548e-01	3.4442e-01	6.6765e-01	-2.0675e-01	-2.0857e+02
63	4.7169e-01	8.3622e-02	-4.4988e-01	1.2056e-01	3.2713e+03
64	5.3147e-02	-4.2878e-03	1.7127e-01	1.2581e-02	3.0059e+03
65	-2.4959e-03	1.6115e-02	-1.1061e-01	1.6930e-02	3.6095e+03
66	2.7511e-02	-3.0141e-03	-8.7999e-02	1.6816e-01	2.8610e+03
67	1.3955e-01	2.4676e-01	9.9504e-02	-5.9168e-02	1.6790e+03
68	5.7663e-02	2.1497e-01	1.6767e-01	-1.2137e-01	1.7792e+03
69	9.8954e-02	2.0131e-01	1.3949e-01	-3.4010e-02	1.9311e+03
70	1.6222e-02	1.6510e-01	9.3390e-02	-1.4747e-01	2.2729e+03
71	1.9435e-01	4.2090e-02	1.5510e-01	-1.1654e-01	3.6439e+03
72	2.2633e-01	8.6433e-02	3.9722e-02	-2.1245e-01	3.4587e+03
73	1.2120e-01	3.4723e-02	1.7544e-01	9.4791e-03	3.4643e+03
74	1.8375e-01	3.7567e-01	4.9021e-01	-5.4216e-01	2.1439e+01
75	3.8453e-01	3.6380e-01	7.4721e-01	3.6299e-02	4.0978e+02
76	1.6064e-01	6.7359e-03	2.3150e-01	-4.5215e-02	3.3792e+03
77	1.8115e-01	2.7589e-01	1.1663e-01	-1.7518e-01	1.3002e+03
78	9.2430e-02	3.0556e-01	1.4007e-01	-2.9997e-01	1.0997e+03
79	1.9246e-01	2.1966e-01	4.6940e-02	-3.2840e-01	1.9218e+03
80	1.0542e-01	3.6278e-01	3.5953e-01	-2.2506e-01	2.3967e+02
81	2.2226e-01	3.8998e-03	3.9407e-01	1.3849e-01	3.6776e+03
82	1.8850e-01	3.1771e-01	2.8466e-01	-1.9098e-01	9.0603e+02
83	4.1614e-01	3.5761e-01	6.0519e-01	8.6253e-02	3.6958e+02
84	6.9671e-02	2.5708e-01	1.0505e-01	-3.4705e-01	1.5007e+03
85	3.7455e-01	4.0155e-01	6.8604e-01	-8.6355e-02	2.3403e+02
86	1.5142e-01	1.7564e-01	1.7038e-01	-1.3537e-01	2.2688e+03
87	1.6064e-01	2.2206e-01	7.6954e-02	-1.4339e-01	1.9257e+03
88	2.9610e-01	3.3187e-01	4.3350e-01	-6.2870e-02	8.9109e+02
89	2.6921e-01	5.9319e-02	2.8493e-01	-2.3323e-01	3.6756e+03
90	6.3554e-01	2.9117e-01	1.1126e-01	8.4556e-01	8.2431e+02
91	3.0308e-02	3.1641e-01	1.7209e-01	-5.5894e-01	1.2675e+03
92	2.3594e-01	3.6159e-01	4.8110e-01	-2.1479e-01	4.2549e+02
93	1.7547e-01	3.0051e-01	3.4195e-01	-3.7620e-01	1.1857e+03
94	3.6988e-01	1.7632e-02	3.9720e-01	-5.0204e-02	3.9336e+03
95	9.4194e-02	2.0239e-01	3.3645e-02	-1.3391e-01	1.8867e+03
96	3.8279e-01	3.9738e-01	7.2339e-01	3.9343e-02	0.0000e+00
97	5.4293e-01	1.4101e-01	-3.0260e-01	2.4563e-01	2.4003e+03
98	2.6122e-01	1.3410e-01	3.3810e-01	-2.4389e-01	2.7002e+03
99	3.8949e-01	3.6355e-01	5.9812e-01	6.9880e-02	3.4318e+02
100	1.2924e-01	4.0510e-01	1.9614e-01	-4.4536e-01	0.0000e+00
101	8.3133e-02	2.4479e-01	6.9890e-02	-5.7717e-02	1.4521e+03
102	4.0453e-01	3.7707e-01	6.2817e-01	1.1673e-01	3.9045e+02
103	8.4535e-01	1.8568e-01	5.1933e-01	-5.3151e-01	-6.5019e+02
104	6.9086e-02	3.1980e-01	4.1885e-03	-3.1765e-01	1.0330e+03
105	2.5721e-01	3.0449e-01	2.2506e-01	-4.3131e-01	7.2118e+02
106	2.5197e-01	3.2814e-01	2.5738e-01	-1.9331e-01	1.4454e+02
107	3.7201e-01	8.2275e-02	2.4395e-01	2.0726e-01	3.7644e+03
108	2.0606e-01	3.5568e-01	3.9834e-01	-2.4538e-01	5.1394e+02
109	4.9703e-01	1.6374e-01	-2.0731e-01	4.0607e-01	1.9219e+03
110	6.0622e-01	3.3659e-01	8.2424e-01	-1.6087e+00	0.0000e+00
111	3.9438e-01	1.3628e-01	-3.7630e-02	4.6258e-01	3.1048e+03
112	2.0162e-01	3.6094e-01	3.6287e-01	-5.3053e-01	2.9761e+02
113	1.7794e-01	2.4658e-01	6.1798e-02	-2.1521e-01	1.7144e+03
114	4.7511e-02	4.0227e-01	3.2752e-01	-4.9396e-01	-1.2458e+02
115	1.2677e+00	1.7453e+00	1.9602e+00	4.2919e-01	0.0000e+00
116	3.2353e-01	3.4986e-01	4.9472e-01	-2.1666e-01	7.5841e+02
117	3.8032e-01	3.3042e-01	5.4071e-01	3.3072e-02	9.2384e+02
118	3.5543e-01	7.6240e-02	3.6429e-01	-2.1178e-02	3.6420e+03
119	8.8141e-03	3.9466e-01	-1.5477e-01	-3.0631e-01	-9.7444e+01
120	5.8284e-01	3.7496e-01	-6.2112e-02	2.6199e-01	0.0000e+00
121	9.5204e-02	3.7739e-01	1.1200e-01	-3.3860e-01	3.5591e+02
122	1.0407e-01	3.0677e-01	2.1743e-01	-3.7799e-01	1.4877e+03
123	3.4218e-01	3.5646e-01	6.2509e-01	-4.8899e-01	8.2674e+01
124	1.7497e-01	1.6598e-01	1.4303e-01	-2.6664e-01	2.3249e+03
125	7.3958e-01	2.1242e-02	-6.5021e-02	3.1477e-01	3.1248e+03
126	3.7639e-03	3.8024e-01	2.8692e-02	-2.7158e-01	3.1247e+02
127	2.8582e-01	4.1983e-02	4.3475e-01	-1.1206e-01	4.0772e+03
128	1.4959e-01	3.6265e-01	2.9624e-01	-2.0948e-01	6.0435e+02
129	-1.0601e-03	9.6946e-02	1.0955e-01	-7.9752e-02	2.8893e+03
130	3.1798e-01	3.8751e-01	7.8100e-01	2.8511e-02	4.0301e+02
131	1.5136e-01	3.8593e-01	3.8044e-01	-2.0854e-01	0.0000e+00
132	5.1250e-02	6.4137e-02	9.8003e-02	-1.8273e-02	3.0597e+03
133	9.6154e-02	7.2590e-02	3.2919e-02	-2.1277e-01	3.0427e+03
134	8.1497e-02	1.3480e-01	-1.0069e-01	-5.9401e-02	2.5653e+03
135	4.7457e-02	2.3732e-01	-8.8959e-02	-6.5592e-02	1.5862e+03
136	4.4147e-02	3.5898e-01	7.6217e-02	-4.5844e-01	6.1776e+02
137	2.5773e-02	3.5949e-01	-6.3378e-03	-3.0849e-01	6.5956e+02
138	1.9678e-01	1.4180e-01	1.5425e-01	-1.7710e-01	2.6747e+03
139	1.2644e-01	3.1669e-01	1.8155e-01	-1.1897e-01	1.1267e+03
140	1.6158e-01	2.8393e-01	3.2768e-01	-2.5714e-01	1.2763e+03
141	1.3599e-01	6.0858e-02	3.6203e-02	-9.2626e-02	3.4056e+03
142	1.8274e-02	2.8194e-01	7.8534e-02	-1.6236e-01	1.8010e+03
143	1.0951e-01	1.5512e-01	1.0275e-01	-1.9113e-01	2.5467e+03
144	1.8434e-01	3.4760e-01	3.6728e-01	-4.2689e-01	5.2218e+02
145	1.3604e-01	2.9299e-01	5.4219e-02	-1.0036e-02	1.1776e+03
146	3.7912e-01	3.8634e-01	6.4377e-01	8.3146e-02	2.4691e+02
147	7.8235e-02	2.1633e-01	2.5541e-01	-1.2291e-01	1.7577e+03
148	8.9890e-01	2.2992e-01	7.0194e-01	-6.9795e-01	0.0000e+00
149	1.7771e-01	7.2614e-02	1.5840e-01	-4.8279e-03	3.1872e+03
150	1.8093e-01	1.0448e-01	2.5465e-01	-2.2298e-01	3.0984e+03
151	1.3861e-02	3.4391e-01	-3.8973e-02	-2.4961e-01	6.2101e+02
152	2.1263e-01	2.1850e-01	2.0161e-01	-1.7949e-01	1.7751e+03
153	2.3306e-01	9.5541e-02	9.0687e-02	-9.6928e-02	3.3197e+03
154	2.4434e-01	2.4046e-01	9.2788e-02	-2.3420e-01	1.5444e+03
155	3.7034e-02	2.6473e-01	1.6905e-01	-1.9799e-01	1.7989e+03
156	2.5461e-01	3.4628e-01	5.8753e-01	-4.1179e-01	5.1117e+02
157	1.2791e-02	4.0522e-01	1.9417e-01	-4.6276e-01	0.0000e+00
158	6.1050e-01	2.0698e-01	3.8353e-01	-1.0399e-01	1.2031e+03
159	8.5374e-02	1.7343e-02	-3.8016e-05	-8.7276e-02	3.2947e+03
160	4.0511e-01	3.7520e-02	4.7556e-01	-2.4608e-02	3.6644e+03
161	2.5155e-01	3.7505e-01	7.6727e-01	-1.4169e-01	4.8928e+02
162	1.9195e-01	3.3856e-01	3.3311e-01	-3.1822e-01	6.7436e+02
163	6.5076e-02	3.8583e-01	2.1277e-01	-4.1154e-01	-1.0155e+03
164	2.2243e-01	3.1269e-01	2.4399e-01	-1.5771e-01	6.3713e+02
165	2.7013e-01	3.3384e-01	3.3003e-01	-7.4924e-02	6.1128e+02
166	2.9214e-01	3.5223e-01	5.0702e-01	-2.3193e-01	5.1608e+02
167	1.6947e-01	3.8748e-01	4.9518e-01	-1.8222e-01	0.0000e+00
168	1.8820e-01	1.5477e-01	2.7221e-01	-3.1986e-02	2.6667e+03
169	1.9267e-01	2.7012e-01	1.7055e-01	-9.7980e-02	1.5530e+03
170	4.7250e-02	1.6299e-01	8.9610e-02	-6.7562e-02	2.3980e+03
171	2.2402e-01	2.5203e-01	1.2082e-01	-1.0565e-01	1.6919e+03
172	1.6800e-01	3.8141e-01	4.7354e-01	3.5523e-02	1.9570e+02
173	1.7205e-01	1.3558e-01	1.1476e-01	-1.6072e-01	2.7385e+03
174	2.5902e-01	3.1262e-01	2.3243e-01	-2.2125e-01	1.2067e+03
175	2.3761e-01	1.9138e-01	1.5731e-01	-3.9341e-01	2.1031e+03
176	4.4712e-01	3.5515e-01	5.6235e-01	-3.2337e-02	1.5779e+03
177	3.6187e-02	3.1047e-01	-3.5644e-02	-1.4959e-02	1.3447e+03
178	2.7709e-01	3.3688e-01	5.3376e-01	3.3926e-02	5.0563e+02
179	5.9836e-01	2.0480e-01	3.3908e-01	-3.3557e-01	1.9919e+03
180	3.1660e-02	3.7932e-01	1.3728e-01	-3.5348e-01	4.9581e+02
181	1.2429e-01	3.7782e-01	2.2596e-01	-2.7594e-01	2.3069e+02
182	1.0516e-01	2.9990e-01	1.5162e-01	-1.4494e-01	1.6284e+03
183	1.3443e-01	2.2439e-01	3.7885e-02	-2.4745e-01	1.9896e+03
184	4.8268e-01	1.0573e-01	-4.2630e-02	3.3168e-01	3.2459e+03
185	9.2897e-02	3.9475e-01	1.3987e-01	-4.0904e-01	0.0000e+00
186	3.8814e-01	3.5751e-01	6.2389e-01	6.9451e-02	5.6063e+02
187	1.3631e-01	2.7763e-01	3.3251e-01	-1.5229e-01	1.3884e+03
188	1.1358e-01	3.9536e-01	2.8088e-01	-2.5464e-01	0.0000e+00
189	3.8765e-01	3.4195e-01	4.8251e-01	2.3955e-02	6.2484e+02
190	1.8241e-01	1.3925e-02	3.2021e-01	2.4554e-02	3.3939e+03
191	3.4864e-01	3.5721e-04	4.7630e-01	1.5475e-01	3.9806e+03
192	6.4263e-02	2.2955e-01	5.7153e-02	-1.7354e-01	1.7655e+03
193	2.0963e-02	1.4329e-01	-2.2249e-02	-3.8185e-02	2.4034e+03
194	6.9778e-02	2.4416e-01	1.1678e-01	-2.5011e-01	1.7182e+03
195	1.3810e-01	1.0164e-01	9.5161e-02	-1.5684e-01	3.0199e+03
196	-1.4736e-03	6.0259e-02	2.1512e-01	7.1032e-02	3.2269e+03
197	1.9004e-02	3.1101e-01	-3.6951e-02	-2.8637e-01	1.5915e+03
198	6.5896e-02	1.6669e-01	1.2225e-01	-1.4146e-01	2.3861e+03
199	2.0037e-01	3.2525e-01	2.7752e-01	-3.8572e-01	7.0009e+02
200	5.6007e-02	1.4830e-01	1.0787e-01	3.0224e-02	2.4765e+03
201	1.1573e-02	2.4468e-01	1.1792e-01	-2.4661e-01	1.6775e+03
202	2.0641e-01	2.3663e-01	1.3159e-01	-3.0401e-01	1.8200e+03
203	6.9924e-02	1.4640e-01	1.5523e-02	-2.9857e-02	2.3930e+03
204	1.3403e-01	1.1917e-01	1.0844e-01	-1.9027e-01	2.8407e+03
205	9.5169e-02	3.2913e-01	1.6380e-02	-2.2166e-01	1.0091e+03
206	1.4712e-01	2.8068e-01	-2.5148e-02	-2.0801e-01	1.4111e+03
207	1.8782e-01	1.2263e-01	1.8540e-01	-1.9979e-01	2.7551e+03
208	9.5069e-02	2.1388e-01	-7.9798e-02	-1.7479e-01	2.0048e+03
209	9.5146e-02	1.6484e-01	1.5353e-01	-2.6203e-01	2.1979e+03
210	2.4122e-01	2.5912e-01	2.9097e-01	-2.9144e-01	1.3768e+03
211	7.2605e-02	3.3171e-01	-4.6934e-02	-2.2494e-01	9.3853e+02
212	1.2151e-01	2.1377e-01	2.6596e-02	-1.9349e-01	2.0236e+03
213	8.4079e-02	1.1113e-01	1.2297e-01	-1.5450e-01	2.8064e+03
214	3.7722e-03	3.0717e-01	-1.4704e-01	-1.7934e-01	1.3384e+03
215	1.8274e-01	1.6292e-01	1.0506e-01	-1.2007e-01	2.4483e+03
216	2.9651e-01	3.5337e-01	4.1212e-01	8.7430e-02	2.9012e+02
217	5.7440e-02	1.8050e-01	9.0256e-02	-1.0044e-01	2.2435e+03
218	2.3023e-01	3.5773e-01	5.6078e-01	-1.7154e-01	5.4602e+02
219	2.6909e-01	2.7549e-01	6.9277e-02	-1.3230e-01	1.2511e+03
220	1.5218e-01	6.5243e-02	2.1606e-01	-8.9770e-02	3.2220e+03
221	2.5252e-01	2.0366e-01	9.8059e-02	-2.8973e-01	2.0181e+03
222	4.1156e-02	2.6083e-01	1.1626e-01	-2.9941e-01	1.8375e+03
223	1.4481e-01	3.7063e-01	3.5740e-01	-6.2941e-01	5.4853e+02
224	1.6396e-01	8.0344e-02	-5.1268e-02	-8.6219e-02	3.2654e+03
225	3.0457e-01	3.6890e-01	5.7604e-01	1.0985e-01	2.6287e+02
226	1.4047e-01	1.7910e-01	8.3580e-02	-1.2162e-01	2.1932e+03
227	3.3464e-01	4.0303e-01	7.8376e-01	-9.6242e-02	-2.3719e+02
228	2.1741e-01	1.4482e-01	1.2713e-01	-1.7126e-01	2.8267e+03
229	7.5738e-02	3.5199e-01	1.6657e-01	-4.9600e-01	6.2189e+02
230	1.2572e-01	1.3796e-01	1.9890e-01	-7.9525e-02	2.5119e+03
231	1.5549e-01	1.3530e-01	9.9213e-02	-7.2698e-03	2.5706e+03
232	1.8236e-01	3.1716e-01	2.5026e-01	-2.8517e-01	9.3137e+02
233	1.9352e-01	1.1630e-01	9.0020e-02	-1.5975e-01	2.7472e+03
234	5.1634e-01	3.1523e-01	9.1934e-01	-1.8442e-01	1.0330e+02
235	3.0796e-01	3.2170e-01	1.9912e-01	-2.5083e-01	4.9643e+02
236	2.5671e-01	3.9097e-01	5.1672e-01	-2.2370e-01	0.0000e+00
237	2.0304e-01	1.5382e-01	6.3479e-02	-2.0932e-01	2.5470e+03
238	4.5526e-02	3.2376e-02	-4.4640e-02	-4.4448e-03	3.3231e+03
239	3.0497e-01	3.7879e-01	7.5010e-01	-1.6875e-01	6.0357e+02
240	6.2371e-01	1.4570e-01	-2.4662e-01	1.4788e-01	2.3296e+03
241	4.3855e-01	3.1053e-01	6.1330e-01	-1.7219e-01	1.6253e+02
242	4.5480e-01	3.3812e-01	7.6988e-01	2.9324e-02	3.5556e+02
243	4.0594e-01	2.7203e-01	5.1925e-01	3.3862e-01	1.2429e+03
244	1.8412e-01	2.8275e-01	1.1244e-01	-2.3020e-01	1.3411e+03
245	8.6098e-02	3.2840e-01	1.3240e-01	-4.3581e-01	1.3239e+03
246	1.3729e-02	4.0816e-01	-5.2446e-02	-2.0215e-01	0.0000e+00
247	3.6493e-01	5.5149e-02	4.9925e-01	-2.5489e-02	3.7340e+03
248	3.5162e-01	3.9925e-01	7.2625e-01	-2.2465e-02	-5.8997e+01
249	1.6733e-01	1.5885e-01	2.4496e-01	-2.6332e-01	2.4704e+03
250	1.1723e-01	2.0193e-01	5.2336e-02	-2.0883e-01	2.0855e+03
251	2.0645e-01	3.7449e-01	6.4933e-01	-3.5571e-01	2.4292e+02
252	3.3907e-01	3.8747e-01	8.5812e-01	-2.0126e-01	5.2654e+02
253	1.3009e-01	2.0449e-01	-5.5283e-02	-1.7782e-01	2.1241e+03
254	2.5302e-01	3.5983e-01	4.5375e-01	-1.3688e-01	2.0717e+02
255	5.6188e-01	4.7812e-02	3.7300e-01	7.5358e-02	4.1984e+03
256	1.5432e-01	2.5039e-01	1.9941e-01	-1.8946e-01	1.4570e+03
257	3.3567e-02	2.6967e-02	-7.8076e-02	-4.3202e-02	3.2397e+03
258	1.1442e-01	7.1669e-02	4.9341e-02	-1.0494e-01	3.1711e+03
259	2.8229e-02	2.6738e-01	-1.4692e-01	-2.1837e-01	1.6903e+03
260	1.4384e-01	2.5488e-01	1.7933e-01	-4.0972e-01	1.8091e+03
261	7.5661e-02	1.5852e-01	-5.0106e-02	-4.3132e-02	2.3374e+03
262	1.2274e-01	3.3547e-01	2.1722e-01	-1.9354e-01	1.0286e+03
263	1.3744e-01	3.0303e-01	1.8906e-01	-1.5374e-01	1.1540e+03
264	1.0458e-01	2.2850e-01	2.2489e-01	-1.3957e-01	1.7810e+03
265	1.1035e-02	2.6884e-01	-8.6076e-02	-3.9138e-02	1.4974e+03
266	1.0228e-02	3.3208e-01	-1.3548e-01	-4.2814e-01	1.0885e+03
267	4.7073e-02	1.3595e-01	7.3437e-02	-1.3548e-01	2.4716e+03
268	2.7214e-01	3.6329e-01	6.1376e-01	-2.5829e-01	5.3023e+02
269	4.2087e-01	4.1306e-01	7.5828e-01	-1.5017e+00	0.0000e+00
270	2.2448e-02	2.5990e-01	-9.5725e-02	-1.0403e-01	1.6883e+03
271	1.7761e-01	2.2193e-01	5.3764e-02	1.2157e-02	1.8214e+03
272	1.2394e-01	2.9927e-01	1.6087e-01	-1.5041e-01	1.2166e+03
273	3.0376e-02	2.1024e-01	-2.2106e-02	-1.4256e-01	1.8854e+03
274	2.6643e-01	1.9961e-01	-6.2648e-02	-6.2812e-02	1.9307e+03
275	1.1634e-01	1.6763e-01	5.3098e-03	-3.2589e-01	2.3295e+03
276	1.8412e-01	8.6155e-02	2.5600e-01	-1.8231e-02	3.1244e+03
277	2.6432e-01	3.6243e-01	6.4845e-01	-3.7446e-01	4.7076e+02
278	2.6123e-01	2.9121e-01	4.4053e-01	-1.2374e-01	1.1328e+03
279	1.6220e-01	3.9686e-01	2.2538e-01	-6.7647e-01	0.0000e+00
280	2.8999e-01	6.3717e-02	2.4279e-01	-1.0163e-01	3.7536e+03
281	9.5937e-02	3.9311e-01	1.7288e-01	-3.6171e-01	4.7586e+02
282	7.3449e-02	2.8330e-01	1.7914e-01	-9.2936e-02	1.4758e+03
283	3.6242e-02	3.4294e-01	-5.5424e-02	-1.6321e-01	9.0882e+02
284	2.0012e-01	5.6647e-02	2.4098e-01	-1.2198e-01	3.5359e+03
285	1.8903e-01	2.1684e-01	1.2820e-01	-1.4530e-01	1.9326e+03
286	1.2771e-01	1.2609e-01	5.7911e-02	-1.0136e-01	2.7727e+03
287	1.4247e-01	2.1427e-01	8.8439e-02	-2.8034e-01	1.8818e+03
288	3.6105e-01	3.6645e-01	6.1804e-01	5.4826e-03	5.0764e+02
289	8.4705e-02	1.7819e-01	1.3871e-01	-1.8215e-01	2.2230e+03
290	1.8694e-01	1.0942e-01	1.3759e-02	-1.3020e-01	2.9859e+03
291	1.3621e-01	1.3783e-01	5.2244e-02	-1.7337e-01	2.7158e+03
292	2.3467e-01	1.9268e-01	1.5896e-01	-1.6421e-01	2.0405e+03
293	1.5477e-02	3.7385e-01	1.1112e-01	-3.1610e-01	3.5871e+02
294	2.2547e-01	1.8896e-02	2.1310e-01	2.6032e-02	3.6983e+03
295	1.4088e-01	1.6197e-01	1.5138e-02	-1.7731e-01	2.5352e+03
296	8.4397e-02	3.9894e-01	2.4557e-01	-2.5384e-01	0.0000e+00
297	2.1105e-01	3.2262e-01	2.1582e-01	-1.1618e-01	8.2379e+02
298	2.8044e-01	2.7587e-01	1.1361e-01	-3.9928e-01	1.1075e+03
299	1.1443e-01	1.0186e-01	1.6627e-01	-4.6550e-02	2.8952e+03
300	9.3092e-02	8.2867e-02	2.6459e-02	-2.0876e-01	2.9620e+03
301	2.1499e-01	1.0596e-01	1.2317e-01	-3.5469e-02	3.1220e+03
302	3.1064e-01	3.5031e-01	3.5942e-01	-1.3871e-01	9.3943e+02
303	1.1247e-01	1.2749e-01	8.0556e-02	-1.2973e-01	2.5448e+03
304	4.1523e-01	3.4048e-01	5.3985e-01	3.1915e-02	5.1653e+02
305	1.3216e-01	3.8399e-01	2.3691e-01	-3.8894e-01	1.8410e+02
306	2.1851e-01	1.3441e-01	-8.8495e-03	-1.1129e-01	2.7670e+03
307	7.2131e-01	3.1267e-01	6.1991e-01	5.8141e-02	1.0166e+02
308	2.2290e-01	1.6254e-01	3.6392e-02	-2.2392e-01	2.4050e+03
309	3.9734e-03	4.8211e-01	-5.6802e-03	-1.4543e+00	0.0000e+00
310	2.8286e-01	3.9032e-02	3.8436e-01	-1.1309e-01	4.0871e+03
311	1.5678e-01	9.3527e-01	2.4497e-01	-7.5589e-01	0.0000e+00
312	3.0895e-01	1.7615e-02	4.4120e-01	-8.8990e-02	3.7738e+03
313	3.2203e-02	2.1885e-01	3.9058e-03	-2.5356e-03	1.7518e+03
314	6.3880e-02	3.7673e-01	1.5530e-01	-3.6538e-01	3.8823e+02
315	2.1174e-01	3.1235e-01	2.2465e-01	-1.7732e-01	8.7220e+02
316	1.1246e-03	3.5504e-01	-1.1976e-01	-2.1210e-01	6.6890e+02
317	2.3492e-01	2.4700e-01	1.7386e-01	-1.9104e-01	1.5404e+03
318	6.8185e-01	9.7033e-03	-7.3618e-02	-2.1968e-01	3.7050e+03
319	3.9623e-01	8.5119e-02	2.6145e-01	2.9664e-02	3.2929e+03
320	2.2037e-02	1.7574e-01	1.0931e-02	-1.3011e-02	2.4520e+03
321	1.4572e-02	3.8366e-01	3.3446e-02	-3.2995e-01	3.7616e+02
322	6.9079e-02	1.1302e-01	1.3608e-02	-1.6658e-01	2.5887e+03
323	1.2490e-01	3.6863e-01	3.1186e-01	-3.1081e-01	3.8857e+02
324	1.8071e-01	-1.3387e-03	3.3417e-01	-1.3786e-01	3.1369e+03
325	3.5963e-02	1.7641e-01	-2.5723e-02	-5.0950e-03	2.1877e+03
326	1.6785e-01	2.1397e-01	1.5751e-01	-1.3300e-01	2.0527e+03
327	1.1687e-01	3.6276e-01	2.8060e-01	-3.5067e-01	6.1970e+02
328	1.5512e-01	3.0826e-01	1.9421e-01	-2.1160e-01	1.0706e+03
329	2.1366e-02	1.8612e-01	3.3853e-02	-1.6835e-01	2.4068e+03
330	9.9233e-02	3.5374e-02	1.5423e-01	-1.5591e-01	3.3251e+03
331	9.0826e-02	1.3948e-01	7.3868e-02	-1.0359e-01	2.5370e+03
332	1.1780e-01	1.4826e-01	-4.7288e-02	-9.0717e-02	2.5230e+03
333	5.9515e-03	1.7475e-01	-8.9111e-02	-2.0552e-01	2.4852e+03
334	2.4611e-02	1.9581e-01	-4.3175e-02	-1.8851e-01	2.1149e+03
335	6.9195e-02	2.3374e-01	-6.0004e-02	-1.4628e-01	1.7848e+03
336	1.4737e-01	1.6800e-01	1.4180e-01	-1.7324e-01	2.3883e+03
337	1.6781e-01	1.9228e-01	8.8503e-02	-2.6987e-01	2.1011e+03
338	2.9753e-01	4.0490e-01	9.2795e-01	-7.7238e-02	0.0000e+00
339	9.9282e-02	2.4098e-01	1.1374e-01	-2.4323e-01	1.6161e+03
340	1.6595e-01	3.2011e-02	1.3676e-03	2.7286e-02	3.4962e+03
341	1.5007e-01	1.0096e-02	2.5505e-01	1.5660e-01	3.1807e+03
342	9.9754e-01	7.6264e-01	1.6122e+00	-1.0187e+00	0.0000e+00
343	2.4520e-01	1.4730e-01	2.6564e-01	-2.4621e-01	2.5723e+03
344	2.0812e-01	3.0084e-01	2.5418e-01	-1.6033e-01	1.1313e+03
345	2.9877e-01	3.2325e-01	3.4231e-02	-5.1460e-02	6.4785e+02
346	6.1390e-01	5.5913e-01	1.0836e+00	-1.3446e+00	0.0000e+00
347	1.7124e-01	1.7866e-01	4.9823e-02	-1.9121e-01	2.4596e+03
348	4.5135e-02	3.2618e-01	1.0743e-01	-2.3512e-01	1.0675e+03
349	1.6590e-01	2.8321e-01	5.9870e-02	-2.6992e-01	1.1669e+03
350	8.6139e-02	9.4806e-02	5.3906e-02	-1.9476e-01	2.9156e+03
351	1.4846e-01	5.6458e-02	8.9567e-02	5.3015e-02	3.2827e+03
352	6.8024e-01	3.4883e-01	3.4906e-01	6.2302e-01	0.0000e+00
353	1.4914e-01	1.3233e-01	1.7925e-01	-3.0821e-01	2.5351e+03
354	2.3224e-01	2.2306e-01	2.5540e-01	-2.6141e-01	1.9411e+03
355	5.6121e-02	2.5994e-01	2.1003e-01	-2.0198e-01	1.6116e+03
356	1.1394e-01	3.6311e-01	2.6113e-01	-2.2135e-01	6.6419e+02
357	1.2501e-01	2.6208e-01	1.3328e-01	-3.3103e-01	1.5630e+03
358	1.3532e-01	3.2374e-02	7.3064e-02	-1.5635e-01	3.3869e+03
359	1.1935e-01	1.8807e-01	4.9373e-02	-3.4760e-01	2.1426e+03
360	1.3816e-01	9.7427e-02	-5.1953e-02	-1.8250e-01	3.1029e+03
361	1.9282e-01	4.0103e-01	3.5511e-01	-5.4575e-01	0.0000e+00
362	1.0656e-01	2.1771e-01	-6.9819e-03	-1.6776e-01	1.8984e+03
363	2.1123e-01	8.8511e-02	2.8228e-01	-1.3555e-01	3.3651e+03
364	1.9826e-01	2.3098e-01	8.0894e-02	-1.4551e-01	1.9013e+03
365	2.2442e-01	1.1793e-01	2.3390e-01	-2.3695e-01	3.0231e+03
366	2.1329e-01	6.0490e-02	2.0676e-01	-7.9527e-02	3.6007e+03
367	2.0241e-01	3.7356e-01	5.5475e-01	-2.5681e-01	-2.6295e+02
368	1.7910e-02	3.9617e-01	-1.1611e-01	-4.1468e-01	2.5281e+02
369	1.3499e-01	1.9473e-01	3.4464e-02	-2.8656e-01	2.2099e+03
370	2.5624e-01	3.2453e-01	4.8202e-01	-5.4561e-01	9.6582e+02
371	1.9052e-01	1.8175e-01	6.0193e-02	-2.9775e-01	2.2933e+03
372	3.0858e-01	4.0276e-01	7.1471e-01	-1.0059e-02	0.0000e+00
373	1.6300e-01	2.6869e-01	3.0154e-02	-2.4156e-01	1.5231e+03
374	1.4085e-01	1.4688e-01	1.1257e-02	-1.6272e-01	2.5999e+03
375	5.1670e-01	1.5321e-01	-2.6050e-01	2.9627e-02	1.7790e+03
376	6.6204e-01	3.4388e-01	1.3910e-01	2.8525e-01	0.0000e+00
377	1.8353e-01	3.6352e-01	4.6735e-01	-6.0957e-01	4.4734e+02
378	5.9060e-02	3.6653e-01	1.1292e-01	-5.1261e-01	8.2736e+02
379	2.1656e-01	3.7007e-01	4.7654e-01	-3.6653e-01	4.8559e+02
380	2.3370e-01	3.1894e-01	2.7410e-01	-1.3393e-01	9.1325e+02
381	6.3875e-01	2.4114e-01	2.7742e-01	3.9433e-01	1.0432e+03
382	4.6299e-01	2.8600e-01	5.9678e-01	3.6368e-01	1.0017e+03
383	2.8795e-01	2.7825e-01	2.3892e-01	-1.1644e-01	1.1054e+03
384	1.5564e-01	3.5112e-01	2.7775e-01	-2.1440e-01	4.9893e+02
385	1.7057e-02	3.9127e-02	3.5074e-02	-1.2017e-01	3.3500e+03
386	-7.7515e-04	3.6854e-02	2.0935e-02	1.4374e-01	3.1398e+03
387	2.3155e-01	3.2618e-01	2.7632e-01	-2.0098e-01	8.9663e+02
388	7.6343e-02	1.4070e-01	6.5885e-02	-2.0017e-01	2.5131e+03
389	1.5758e-01	2.6869e-01	8.0668e-02	-2.9034e-01	1.4510e+03
390	7.6021e-02	1.7741e-01	3.5917e-02	-5.8534e-02	2.1949e+03
391	1.5461e-01	3.4628e-01	4.2042e-01	-3.8900e-01	6.1283e+02
392	1.2108e-02	1.2625e-01	1.1339e-01	2.2124e-02	2.7136e+03
393	2.8679e-02	3.3211e-01	7.6395e-02	-3.5294e-01	1.2418e+03
394	2.0253e-02	2.9796e-01	9.2097e-02	-3.4940e-01	1.5850e+03
395	2.8811e-01	3.7471e-01	7.2550e-01	-2.9321e-01	1.4395e+03
396	4.8732e-02	2.1435e-01	7.8700e-03	-1.4548e-01	2.0050e+03
397	4.7247e-02	1.4430e-01	6.7449e-02	-1.6895e-02	2.4049e+03
398	9.5312e-02	1.4585e-01	-8.5874e-02	-1.4772e-01	2.5809e+03
399	-9.8599e-05	7.3950e-02	1.0628e-01	2.8382e-02	3.3512e+03
400	3.6732e-02	1.5796e-01	3.1786e-02	-9.3124e-02	2.5051e+03
401	3.4549e-01	1.3648e-02	4.4057e-01	4.6329e-02	3.9748e+03
402	1.0220e-03	1.6230e-01	1.0796e-02	-9.2877e-02	2.7688e+03
403	7.9082e-03	1.4853e-01	7.0735e-02	-6.5569e-02	2.6265e+03
404	1.7253e-01	1.3552e-01	2.1807e-01	-1.7048e-01	2.7696e+03
405	6.9389e-02	3.0933e-01	8.7852e-02	-1.4709e-01	1.2428e+03
406	8.6605e-02	1.5716e-01	1.0586e-01	-1.6905e-01	2.2664e+03
407	1.3988e-01	1.9698e-02	1.5721e-01	-1.0113e-01	3.4403e+03
408	3.8035e-01	7.5458e-02	3.0652e-01	-9.9546e-02	3.6138e+03
409	1.2848e-01	2.8436e-01	9.0276e-02	-9.5061e-02	1.3777e+03
410	1.7306e-01	3.8295e-02	1.7829e-01	-1.7435e-01	3.6079e+03
411	4.1304e-01	3.1553e-01	6.4560e-01	-2.1156e-01	7.5286e+02
412	3.1846e-02	1.8321e-01	-4.8454e-02	-1.8835e-01	2.2707e+03
413	1.8319e-03	8.4185e-02	-3.7310e-03	-1.0836e-01	3.1060e+03
414	2.4135e-02	3.2171e-01	-3.9626e-02	-1.5332e-01	1.2298e+03
415	1.4707e-01	3.6677e-01	3.3755e-01	-2.8288e-01	3.8453e+02
416	1.5084e-01	2.9442e-01	4.3236e-01	-1.7556e-01	1.2116e+03
417	6.7606e-02	4.0060e-02	1.3256e-01	-1.7481e-03	3.3247e+03
418	1.6596e-01	3.3371e-01	3.5055e-01	-2.5444e-01	7.3910e+02
419	2.2529e-01	3.3517e-01	4.6858e-01	-2.8315e-01	5.6544e+02
420	1.5390e-01	1.8593e-01	1.1241e-01	-2.9064e-01	2.2158e+03
421	6.0365e-02	3.4463e-01	5.6560e-02	-4.9710e-01	8.4512e+02
422	2.5140e-01	3.9184e-01	5.9191e-01	-2.2250e-01	0.0000e+00
423	5.0146e-02	3.0847e-01	3.1089e-02	-3.4481e-01	1.4987e+03
424	1.1470e-01	1.1111e-01	4.4683e-02	-1.2680e-01	2.8090e+03
425	1.4869e-01	3.0130e-02	1.4340e-01	6.6464e-03	3.4110e+03
426	1.7021e-01	3.4931e-01	2.3982e-01	-1.0239e-01	3.9769e+02
427	5.1989e-02	2.9439e-01	1.6764e-02	-2.4607e-01	1.7136e+03
428	1.9300e-02	1.2968e-01	1.3226e-02	-8.5814e-02	2.6856e+03
429	2.0030e-01	2.8955e-01	1.8405e-01	-1.3624e-01	1.0161e+03
430	3.6068e-01	3.2576e-01	5.5512e-01	4.4265e-02	5.7202e+02
431	1.2096e-01	1.8209e-01	-2.3732e-02	-2.4539e-01	2.2508e+03
432	3.1231e-02	3.6716e-01	1.0969e-01	-3.7719e-01	4.4146e+02
433	1.7307e-01	3.0621e-01	1.0975e-01	-2.3177e-01	9.8505e+02
434	2.0512e-01	1.7907e-01	9.6117e-03	-8.7330e-02	2.2919e+03
435	2.7982e-01	2.9510e-01	3.1519e-01	-3.2838e-01	1.1059e+03
436	3.9310e-01	3.3667e-01	7.5576e-01	-7.6248e-02	2.4449e+02
437	1.6423e-01	2.0481e-01	1.7079e-01	-1.5585e-01	2.0674e+03
438	1.6132e-01	3.0540e-01	2.9118e-01	-1.6011e-01	1.0868e+03
439	1.4630e-01	3.1361e-01	1.9800e-01	-3.9374e-01	8.7852e+02
440	2.4852e-01	1.9576e-01	1.1958e-01	-1.8763e-01	2.2634e+03
441	1.9240e-01	1.3818e-01	1.2698e-01	-1.7476e-01	2.7540e+03
442	1.9891e-01	1.0373e-02	3.0199e-01	-1.0533e-01	3.2816e+03
443	1.5232e-01	1.0995e-01	1.2660e-01	-8.4526e-02	3.0062e+03
444	2.1949e-01	1.7750e-01	1.4004e-01	-2.1380e-01	2.3146e+03
445	3.4368e-01	4.0811e-01	8.7534e-01	6.5442e-02	0.0000e+00
446	1.8778e-01	2.5353e-01	1.4366e-01	-2.3645e-01	1.5582e+03
447	1.6939e-02	1.6326e-01	1.0064e-01	-1.4789e-01	2.2851e+03
448	1.8322e-02	-2.9872e-03	9.5010e-02	4.9518e-02	3.1972e+03
449	2.8297e-02	4.0962e-02	-5.5780e-02	-1.3210e-01	3.2486e+03
450	4.9680e-02	2.2729e-01	-1.2338e-01	-2.1786e-01	1.6721e+03
451	2.5241e-02	3.4852e-01	-5.8741e-02	-2.8040e-01	8.9004e+02
452	1.0249e-01	-1.7323e-03	2.0328e-01	5.2860e-02	3.4458e+03
453	2.0793e-02	9.1290e-02	-8.9684e-02	-1.1277e-01	2.8453e+03
454	1.2160e-01	6.1404e-02	9.4506e-02	-1.1621e-01	3.2212e+03
455	4.7675e-02	1.1891e-01	7.3486e-02	-8.3663e-03	2.7441e+03
456	1.6503e-01	1.0067e-01	1.1667e-01	-1.9095e-01	2.9472e+03
457	1.2910e-02	3.5777e-02	4.2099e-02	-3.8765e-02	3.3095e+03
458	4.2770e-02	1.1975e-01	1.1712e-01	-1.7242e-01	2.6934e+03
459	5.6566e-03	2.4211e-02	-7.5941e-03	2.9207e-02	3.4053e+03
460	1.3303e-01	1.7715e-01	1.9130e-01	-2.1936e-01	2.2627e+03
461	7.4581e-03	3.1340e-01	1.6411e-01	-2.6850e-01	1.3693e+03
462	6.1916e-02	3.1811e-01	-2.6306e-03	-3.2079e-01	1.2389e+03
463	4.0201e-02	2.2062e-01	1.2878e-01	-2.3930e-01	2.0397e+03
464	1.1323e-01	8.2442e-02	-3.9900e-03	-2.4663e-02	3.1202e+03
465	1.5587e-02	2.3350e-01	3.3130e-02	-3.0562e-01	1.9117e+03
466	8.7206e-02	2.3278e-01	1.2698e-01	-8.1558e-02	1.5909e+03
467	1.6440e-01	2.5096e-01	1.6040e-01	-1.8639e-01	1.6505e+03
468	1.6769e-02	5.8567e-02	-8.9111e-02	-8.5215e-02	3.0637e+03
469	3.1901e-01	3.3086e-01	6.4981e-01	-3.7503e-01	6.8491e+02
470	3.5344e-02	7.3684e-02	6.9641e-02	-2.8457e-02	2.9909e+03
471	1.5293e-01	2.5693e-02	1.7025e-01	-6.7466e-02	3.4345e+03
472	7.9058e-02	2.1772e-01	-8.9953e-02	-9.7690e-02	1.8453e+03
473	9.2480e-02	3.4937e-01	1.8160e-01	-3.6062e-01	1.1045e+03
474	1.1361e-02	1.1315e-01	-2.5858e-02	-1.5923e-01	2.6217e+03
475	2.2861e-02	2.4510e-01	5.3278e-03	-1.5824e-01	1.5114e+03
476	2.1011e-01	3.4877e-01	6.2558e-01	-3.7579e-01	6.0541e+02
477	1.5114e-01	3.4336e-01	1.7576e-01	-2.2529e-01	4.6948e+02
478	4.2930e-02	2.8428e-01	1.9910e-01	-2.4537e-01	1.9290e+03
479	1.8584e-01	2.3928e-01	1.4544e-01	-1.9890e-01	1.7981e+03
480	1.1758e-01	3.7967e-01	7.1915e-02	-2.9347e-01	3.7256e+02
481	2.4287e-01	6.4073e-02	1.4145e-01	1.2813e-01	3.5047e+03
482	1.8545e-01	2.9086e-01	2.9289e-01	-4.8090e-01	1.1074e+03
483	2.6314e-02	1.5074e-01	1.5029e-01	-2.6184e-01	2.5234e+03
484	1.1872e-01	3.1246e-01	1.3713e-01	-9.9087e-02	1.1796e+03
485	6.2417e-02	1.0004e-01	5.9300e-03	-1.1398e-01	2.8990e+03
486	2.7367e-01	3.5647e-01	3.0884e-01	-1.3644e-01	3.5551e+02
487	5.8504e-02	2.8252e-01	1.7212e-01	-1.8620e-01	1.5941e+03
488	1.5478e-01	2.6618e-01	-2.8584e-02	-1.8882e-01	1.3950e+03
489	6.7587e-02	3.8030e-02	3.6189e-02	-9.5213e-02	3.3278e+03
490	3.3446e-02	2.3475e-01	-4.0291e-02	-2.4685e-01	1.8285e+03
491	1.0699e-02	1.9517e-01	-6.7681e-03	-1.2035e-01	2.1294e+03
492	2.2000e-02	3.4757e-01	-1.4838e-03	-5.3943e-01	7.5526e+02
493	1.7870e-01	2.6478e-01	8.3568e-02	-2.1951e-01	1.4774e+03
494	8.2137e-02	3.2292e-02	7.0571e-02	-4.1877e-03	3.4734e+03
495	1.9605e-01	1.9131e-01	-8.0206e-03	-2.1322e-01	2.1098e+03
496	3.3593e-01	2.8783e-02	2.9024e-01	2.2734e-03	3.8424e+03
497	1.0984e-01	1.7052e-01	1.3109e-01	-7.7719e-02	2.4263e+03
498	1.5782e-02	3.8963e-01	7.7706e-02	-3.7950e-01	3.8770e+02
499	9.4708e-02	1.1298e-01	4.5818e-02	-9.5710e-02	2.7736e+03