variables="k","x","y","vx","vy","pressure"
zone i=8064 j=1
0	2.1907e-01	2.9080e-01	2.5244e-01	-2.3723e-01	9.3813e+02
1	5.5953e-02	3.4269e-01	2.3193e-01	-2.0939e-01	6.2417e+02
2	8.3054e-02	2.5727e-01	1.4256e-01	-1.9245e-01	1.6220e+03
3	1.4159e-01	2.5092e-03	1.4069e-01	-6.2332e-02	3.1736e+03
4	6.1716e-02	2.7770e-01	6.2039e-02	-1.8072e-01	1.5773e+03
5	2.1465e-01	9.8352e-02	2.7689e-01	-8.9316e-02	2.9723e+03
6	1.8074e-01	3.0933e-01	3.8283e-01	-1.3805e-01	8.7187e+02
7	2.2605e-01	2.6473e-01	1.0406e-01	-1.3513e-01	1.3213e+03
8	-1.4135e-03	4.8369e-02	3.6982e-02	-2.9445e-02	3.4039e+03
9	2.0407e-01	6.6635e-02	9.3006e-02	-1.4373e-01	3.2712e+03
10	1.3019e-01	2.4121e-01	2.8898e-01	-2.0300e-01	1.7600e+03
11	1.0407e-01	2.9229e-01	2.4809e-01	-2.0498e-01	1.3629e+03
12	3.4008e-01	1.2265e-01	2.7530e-01	-1.0397e-01	2.4969e+03
13	2.6666e-01	8.2685e-02	3.1417e-01	-1.1597e-01	3.1676e+03
14	1.9605e-01	1.0479e-02	2.7965e-01	-9.6756e-02	3.3732e+03
15	8.7823e-02	2.9013e-01	1.5671e-01	-1.7039e-01	1.3081e+03
16	1.9770e-01	2.4947e-01	5.8094e-02	-1.0709e-01	1.6772e+03
17	4.3658e-01	2.7994e-02	5.9357e-01	-2.5373e-02	3.2923e+03
18	3.9998e-01	3.7517e-01	6.9382e-01	-7.8305e-02	1.3452e+03
19	8.6487e-02	2.4864e-01	1.5485e-02	-1.7753e-01	1.5847e+03
20	1.4621e-01	3.1413e-01	2.0182e-01	-3.8441e-01	1.0081e+03
21	2.8131e-02	3.6810e-01	9.7196e-02	-2.8990e-01	0.0000e+00
22	1.1035e-01	9.7200e-02	1.0561e-01	-1.0377e-02	2.9021e+03
23	2.2237e-01	1.6848e-01	1.6489e-01	-6.1299e-02	2.5165e+03
24	3.8212e-01	3.0814e-02	3.6883e-01	6.0475e-02	3.3224e+03
25	-5.5913e-04	1.7691e-01	9.5714e-02	-2.5131e-01	2.3429e+03
26	8.1142e-02	1.7058e-01	9.8342e-02	-1.4966e-01	2.1824e+03
27	1.7682e-01	1.4569e-01	2.1659e-01	-1.2685e-01	2.7344e+03
28	2.7422e-01	2.4132e-01	1.1517e-01	-3.5209e-01	1.1427e+03
29	2.1510e-01	3.3450e-01	5.0006e-01	-3.6233e-01	7.9811e+02
30	-7.4216e-04	1.0612e-01	3.7300e-01	-7.3146e-02	2.7087e+03
31	1.0076e-01	1.1119e-01	3.8100e-02	-1.1078e-01	2.7818e+03
32	1.7387e-01	3.0200e-01	3.0600e-01	-3.9867e-01	9.4989e+02
33	2.9510e-01	8.9889e-02	3.3138e-01	-2.1563e-01	2.8699e+03
34	5.1980e-01	3.0444e-01	8.4302e-01	-5.9238e-01	7.0064e+02
35	4.3877e-01	4.1580e-01	8.5606e-01	-1.3662e-01	0.0000e+00
36	2.8565e-01	3.6636e-01	4.4260e-01	-1.7786e-01	0.0000e+00
37	4.3617e-01	3.6554e-01	9.2503e-01	5.3771e-02	1.0431e+02
38	5.8587e-01	2.1988e-01	1.7497e-01	-3.2145e-01	1.4193e+03
39	3.6838e-01	3.7733e-01	7.2162e-01	-2.7112e-01	1.8239e+02
40	2.0913e-01	2.7719e-01	1.4271e-01	-2.9989e-01	1.3213e+03
41	1.7328e-01	8.0605e-02	1.1072e-01	-5.5954e-02	3.0296e+03
42	7.8067e-02	2.4860e-02	3.1020e-02	3.3224e-02	3.2975e+03
43	4.1209e-01	2.8033e-02	5.4001e-01	-2.5589e-02	3.3648e+03
44	9.9962e-02	2.6817e-01	1.1878e-01	-3.3346e-01	1.4915e+03
45	6.0653e-01	2.5323e-01	8.1106e-01	-5.5901e-01	1.1579e+03
46	1.4967e-02	3.0950e-01	1.1270e-02	-1.2510e-01	1.1296e+03
47	1.6040e-01	3.2509e-01	3.2891e-01	-2.6423e-01	9.0730e+02
48	7.5063e-03	3.4883e-01	3.7555e-02	-1.2130e-01	-4.0483e+01
49	8.9713e-02	3.3192e-01	1.1417e-01	-1.5555e-01	8.1597e+02
50	6.8677e-01	8.7183e-02	-2.0872e-01	2.3064e-01	3.0579e+03
51	5.9146e-02	3.3121e-01	1.7419e-01	-1.4026e-01	7.4072e+02
52	1.8735e-01	1.7388e-01	1.2006e-01	-2.4662e-01	2.3947e+03
53	4.4532e-02	1.8073e-01	2.4756e-02	-1.2317e-01	2.1154e+03
54	2.4136e-01	2.6655e-01	1.4207e-02	-2.5436e-01	1.3470e+03
55	4.7358e-01	3.0471e-01	6.2287e-01	-3.3301e-01	-2.8976e+01
56	4.5977e-01	1.1234e-01	-2.4442e-01	3.6664e-01	2.3850e+03
57	1.8195e-01	3.1922e-01	2.8651e-01	-1.7222e-01	7.7402e+02
58	4.0148e-01	2.7623e-01	3.6969e-01	4.3468e-01	1.4613e+03
59	2.5434e-01	3.4013e-01	3.9154e-01	-1.7794e-01	3.9623e+02
60	7.9946e-02	2.3815e-01	-3.3164e-02	-1.1076e-01	1.5286e+03
61	6.0527e-01	3.9777e-01	9.4557e-01	-1.7663e+00	0.0000e+00
62	5.6319e-01	3.1368e-01	7.3550e-01	-4.0148e-01	9.0740e+01
63	4.4168e-01	1.0682e-01	-1.2134e-01	4.5819e-01	2.2557e+03
64	6.0557e-02	-4.4475e-03	4.1642e-02	1.2720e-02	3.3831e+03
65	-2.5712e-03	1.7264e-02	-1.1134e-01	-1.7700e-02	3.4977e+03
66	3.8305e-02	-3.1564e-03	2.2287e-01	1.6718e-01	2.8670e+03
67	1.4456e-01	2.2915e-01	4.9465e-02	-2.6272e-01	1.8895e+03
68	6.7357e-02	2.0325e-01	8.0318e-02	-1.9829e-01	1.9623e+03
69	1.1312e-01	1.9859e-01	2.3987e-01	-1.2418e-01	2.0508e+03
70	1.6136e-02	1.5630e-01	-5.4751e-02	-1.0158e-01	2.2952e+03
71	2.0467e-01	3.0670e-02	1.3425e-01	-1.7912e-01	3.4403e+03
72	2.4343e-01	6.5085e-02	2.9829e-01	-2.5798e-01	3.2538e+03
73	1.3437e-01	3.6139e-02	1.6013e-01	3.1734e-02	3.2405e+03
74	2.3069e-01	3.5128e-01	6.8904e-01	-1.8918e-01	7.1126e+01
75	4.4941e-01	3.6705e-01	9.3603e-01	-2.3096e-02	4.1688e+02
76	1.7574e-01	9.7691e-03	1.2914e-01	9.2840e-02	2.8960e+03
77	1.9050e-01	2.5885e-01	1.3360e-01	-2.9232e-01	1.5186e+03
78	1.0036e-01	2.8265e-01	7.2124e-02	-2.3519e-01	1.3249e+03
79	1.9747e-01	1.9523e-01	5.6006e-02	-2.6357e-01	2.2481e+03
80	1.2513e-01	3.4446e-01	2.4638e-01	-2.0393e-01	5.7603e+02
81	2.5443e-01	1.1464e-02	3.8452e-01	1.2440e-01	3.2486e+03
82	2.1704e-01	3.0642e-01	3.8867e-01	-3.8137e-02	7.8540e+02
83	4.6858e-01	3.5473e-01	6.9653e-01	-5.7945e-02	-9.8710e+01
84	7.7181e-02	2.3176e-01	8.1946e-02	-2.6220e-01	1.5547e+03
85	4.3734e-01	3.9680e-01	8.4745e-01	-1.2914e-01	0.0000e+00
86	1.6265e-01	1.6602e-01	1.4433e-01	-1.0416e-01	2.4104e+03
87	1.6984e-01	2.0821e-01	1.0361e-01	-1.6805e-01	2.2035e+03
88	3.2761e-01	3.2257e-01	3.3466e-01	-4.2978e-02	9.4361e+02
89	3.0221e-01	4.2993e-02	4.6978e-01	-1.4427e-01	3.3793e+03
90	6.2523e-01	3.4376e-01	-3.3061e-01	3.9355e-01	0.0000e+00
91	4.5261e-02	2.7650e-01	2.0761e-01	-3.9723e-01	1.5225e+03
92	2.7430e-01	3.5059e-01	4.3711e-01	-6.8159e-02	6.2281e+02
93	1.9650e-01	2.7116e-01	2.1732e-01	-3.0141e-01	1.2582e+03
94	4.0253e-01	1.3635e-02	6.4204e-01	-3.1912e-02	3.0381e+03
95	9.5628e-02	1.8587e-01	3.3510e-03	-2.5448e-01	2.0675e+03
96	4.4865e-01	3.9635e-01	8.9997e-01	-1.4672e-01	0.0000e+00
97	5.1680e-01	1.5637e-01	-4.5904e-01	1.3402e-01	2.0371e+03
98	2.9656e-01	1.1503e-01	5.1308e-01	-1.7603e-01	2.6364e+03
99	4.4557e-01	3.6921e-01	8.3263e-01	5.0857e-03	2.5067e+02
100	1.4559e-01	3.6357e-01	2.1766e-01	-4.5141e-01	0.0000e+00
101	9.4276e-02	2.3897e-01	1.7216e-01	-1.3597e-01	1.5689e+03
102	4.6136e-01	3.8242e-01	8.0332e-01	-1.0371e-01	2.9052e+02
103	8.6740e-01	1.6732e-01	1.2055e-01	5.0156e-04	1.4460e+03
104	7.5731e-02	2.9865e-01	6.1192e-02	-2.3729e-01	1.1976e+03
105	2.7555e-01	2.7270e-01	2.2146e-01	-2.9899e-01	1.3081e+03
106	2.6992e-01	3.1615e-01	3.1218e-01	-1.5767e-01	9.7824e+02
107	3.9420e-01	9.4682e-02	3.9624e-01	1.1417e-01	2.4495e+03
108	2.3696e-01	3.4011e-01	2.7840e-01	-1.0671e-01	4.6593e+02
109	4.8783e-01	1.9740e-01	3.4881e-02	3.9063e-01	1.2954e+03
110	6.6578e-01	2.7467e-01	5.1499e-01	-8.3391e-02	-3.2346e+02
111	4.0121e-01	1.9163e-01	2.0014e-01	7.5908e-01	1.4611e+03
112	2.3276e-01	3.2868e-01	4.5658e-01	-2.7552e-01	5.6011e+02
113	1.8528e-01	2.3156e-01	4.8695e-02	-1.6126e-01	1.8152e+03
114	7.3612e-02	3.5956e-01	3.6620e-01	-3.3035e-01	3.1095e+02
115	1.4246e+00	1.7640e+00	1.9602e+00	3.6792e-02	0.0000e+00
116	3.6843e-01	3.3052e-01	5.1857e-01	-1.9159e-01	6.5897e+02
117	4.2695e-01	3.3196e-01	5.6838e-01	1.8194e-02	4.1126e+02
118	3.9277e-01	7.6350e-02	4.5418e-01	8.8079e-02	2.8309e+03
119	1.8822e-02	3.7036e-01	5.6571e-01	-4.5349e-01	0.0000e+00
120	5.7787e-01	3.8021e-01	-6.2112e-02	-1.3041e-01	0.0000e+00
121	1.0632e-01	3.4087e-01	1.1347e-01	-4.9106e-01	5.2586e+02
122	1.1498e-01	2.8213e-01	1.8015e-01	-3.1587e-01	1.4127e+03
123	3.9033e-01	3.3030e-01	5.8706e-01	-3.0877e-01	7.5549e+02
124	1.8395e-01	1.4507e-01	6.2990e-02	-2.0859e-01	2.6174e+03
125	7.3557e-01	3.7031e-02	-9.2688e-02	1.1206e-01	3.2803e+03
126	4.5693e-03	3.6103e-01	-6.5342e-02	-7.8059e-02	0.0000e+00
127	3.2807e-01	3.7354e-02	6.5179e-01	2.9610e-02	3.3151e+03
128	1.7019e-01	3.4542e-01	2.8334e-01	-1.4732e-01	3.1672e+02
129	-1.1043e-03	9.5221e-02	1.0872e-01	-7.9651e-02	2.6971e+03
130	3.8459e-01	3.8860e-01	8.3678e-01	3.2270e-03	-4.0086e+02
131	1.8522e-01	3.6732e-01	4.3017e-01	-3.1069e-01	0.0000e+00
132	6.1739e-02	5.9961e-02	1.3478e-01	-3.5698e-02	3.1212e+03
133	1.0557e-01	5.4479e-02	8.0515e-02	-1.9362e-01	3.1246e+03
134	7.6194e-02	1.2968e-01	-1.0451e-02	-8.7379e-02	2.3953e+03
135	4.4204e-02	2.3446e-01	1.9059e-02	-5.9622e-04	1.5326e+03
136	4.8239e-02	3.2173e-01	7.6044e-02	-4.3930e-01	7.9317e+02
137	2.8150e-02	3.3450e-01	1.0276e-01	-2.6428e-01	7.3152e+02
138	2.1308e-01	1.3386e-01	2.4174e-01	-8.8647e-02	2.6145e+03
139	1.4616e-01	3.0343e-01	3.3255e-01	-2.4887e-01	1.0756e+03
140	1.8503e-01	2.7186e-01	1.5488e-01	-5.7089e-02	1.3371e+03
141	1.4133e-01	5.3740e-02	1.0453e-01	-9.0998e-02	3.3234e+03
142	1.6994e-02	2.6640e-01	-4.1527e-02	-2.6404e-01	1.5116e+03
143	1.1005e-01	1.4991e-01	-7.3944e-04	-6.6299e-03	2.3980e+03
144	2.0673e-01	3.2208e-01	2.1779e-01	-2.5966e-01	6.6985e+02
145	1.4693e-01	2.8497e-01	2.0224e-01	-1.1479e-01	1.2225e+03
146	4.4000e-01	3.8964e-01	8.6707e-01	-1.7302e-02	1.5420e+02
147	9.0934e-02	2.0900e-01	1.3980e-01	-6.0405e-02	1.8124e+03
148	9.2185e-01	2.0151e-01	2.6937e-02	-6.5588e-02	7.3633e+02
149	1.9661e-01	7.2617e-02	2.3543e-01	-4.6798e-02	3.0703e+03
150	2.0635e-01	8.6884e-02	3.7425e-01	-1.0295e-01	3.0251e+03
151	5.2703e-03	3.2538e-01	-1.2124e-01	-2.3882e-01	5.1439e+02
152	2.2356e-01	2.0671e-01	1.3257e-01	-1.4644e-01	1.9852e+03
153	2.3907e-01	8.3011e-02	4.9857e-02	-2.2661e-01	3.2069e+03
154	2.5554e-01	2.1606e-01	1.0200e-01	-3.5247e-01	1.6890e+03
155	4.6335e-02	2.4667e-01	1.5692e-01	-3.5386e-01	1.6891e+03
156	2.9322e-01	3.0890e-01	3.7805e-01	-4.4132e-01	8.7365e+02
157	2.6113e-02	3.7227e-01	1.3882e-01	-2.4534e-01	0.0000e+00
158	6.2990e-01	2.1494e-01	1.6884e-01	1.1478e-02	2.3674e+03
159	9.0314e-02	1.6112e-02	8.0809e-02	-3.3196e-02	3.4178e+03
160	4.4220e-01	2.7941e-02	4.6598e-01	-1.7374e-01	3.2668e+03
161	3.1843e-01	3.6223e-01	8.2649e-01	-1.5702e-01	2.3893e+02
162	2.2022e-01	3.1001e-01	3.1794e-01	-4.3818e-01	8.0691e+02
163	7.9570e-02	3.5321e-01	1.6918e-01	-2.6153e-01	4.5606e+02
164	2.4248e-01	3.0006e-01	2.8029e-01	-2.1391e-01	9.1921e+02
165	2.9058e-01	3.2924e-01	1.3870e-01	-9.4127e-02	7.0034e+02
166	3.3292e-01	3.4054e-01	4.4803e-01	-7.9895e-02	6.9800e+02
167	2.0972e-01	3.6673e-01	4.7752e-01	-3.4346e-01	0.0000e+00
168	2.1232e-01	1.5011e-01	2.5924e-01	-2.0759e-02	2.4967e+03
169	2.0449e-01	2.5968e-01	2.1531e-01	-1.8710e-01	1.3867e+03
170	5.5036e-02	1.5611e-01	6.1480e-02	-5.2365e-02	2.3634e+03
171	2.3682e-01	2.4373e-01	1.8748e-01	-1.4032e-01	1.6114e+03
172	2.0801e-01	3.7913e-01	5.0176e-01	-1.7865e-01	0.0000e+00
173	1.7204e-01	1.2542e-01	9.7459e-03	-1.5133e-01	2.7857e+03
174	2.6776e-01	2.8661e-01	1.3458e-01	-3.6888e-01	1.0835e+03
175	2.5164e-01	1.6680e-01	1.6134e-01	-2.3539e-01	2.2815e+03
176	5.0008e-01	3.4957e-01	8.4355e-01	-1.5222e-01	1.2898e+02
177	3.2907e-02	2.9743e-01	-7.4377e-02	-3.3197e-01	1.3706e+03
178	3.1536e-01	3.4261e-01	3.9082e-01	1.1233e-01	4.4999e+02
179	6.2000e-01	1.9528e-01	2.2647e-01	-8.2123e-03	1.9142e+03
180	4.1152e-02	3.5251e-01	8.0887e-02	-3.0765e-01	3.6971e+02
181	1.4817e-01	3.5419e-01	4.5226e-01	-3.7128e-01	1.2067e+03
182	1.1379e-01	2.8355e-01	1.5314e-01	-2.4757e-01	1.3626e+03
183	1.3579e-01	2.0672e-01	1.1016e-01	-1.1851e-01	2.0301e+03
184	4.7459e-01	1.4106e-01	-2.2122e-01	5.5766e-01	1.9943e+03
185	1.0253e-01	3.6548e-01	1.0881e-01	-3.3148e-01	0.0000e+00
186	4.4352e-01	3.5197e-01	7.5702e-01	-1.6416e-01	3.7310e+02
187	1.6158e-01	2.6574e-01	2.5765e-01	-2.2309e-01	1.4199e+03
188	1.3755e-01	3.7325e-01	2.5666e-01	-3.3096e-01	0.0000e+00
189	4.3769e-01	3.4666e-01	7.0851e-01	7.4213e-02	3.5428e+02
190	2.0851e-01	1.6815e-02	3.2301e-01	8.2065e-03	3.1527e+03
191	3.8643e-01	5.0168e-05	5.5670e-01	2.2113e-01	3.4836e+03
192	6.3332e-02	2.1553e-01	-4.6795e-02	-1.4758e-01	1.7678e+03
193	2.0371e-02	1.3751e-01	-9.7431e-02	-4.9041e-02	2.6244e+03
194	7.9342e-02	2.2902e-01	1.3298e-01	-2.1028e-01	1.6199e+03
195	1.4552e-01	8.8132e-02	8.9287e-02	-1.3896e-01	3.0407e+03
196	-1.5606e-03	6.2775e-02	2.1578e-01	-7.8789e-02	3.3768e+03
197	2.2775e-02	2.8638e-01	1.2196e-01	-3.4890e-01	1.5897e+03
198	7.0379e-02	1.5892e-01	8.1464e-02	-5.9511e-02	2.2554e+03
199	2.1749e-01	2.9733e-01	2.0349e-01	-2.5952e-01	8.6320e+02
200	6.1683e-02	1.5087e-01	2.2197e-02	-3.5437e-02	2.1950e+03
201	2.4685e-02	2.2933e-01	1.3960e-01	-1.5359e-01	1.7096e+03
202	2.1648e-01	2.1165e-01	6.1042e-02	-2.9425e-01	2.0657e+03
203	7.2895e-02	1.4251e-01	3.3961e-02	-3.5153e-03	2.2951e+03
204	1.4689e-01	1.0312e-01	1.8589e-01	-1.7873e-01	2.8681e+03
205	1.0511e-01	3.1291e-01	1.5920e-01	-2.7440e-01	1.0376e+03
206	1.4689e-01	2.7046e-01	5.6950e-02	-8.5786e-02	1.5837e+03
207	2.0117e-01	1.1154e-01	1.2682e-01	-1.0310e-01	2.8630e+03
208	9.4866e-02	1.9946e-01	6.3818e-02	-1.8083e-01	1.9283e+03
209	1.0934e-01	1.4356e-01	1.9326e-01	-2.7537e-01	2.5351e+03
210	2.5826e-01	2.3874e-01	2.3785e-01	-2.2018e-01	1.5580e+03
211	7.5241e-02	3.1113e-01	6.3132e-02	-3.1468e-01	1.2950e+03
212	1.2409e-01	2.0537e-01	-2.9989e-02	-1.1354e-01	2.1056e+03
213	9.3338e-02	1.0107e-01	1.0928e-01	-1.1514e-01	2.8555e+03
214	6.3309e-03	2.8917e-01	8.2113e-02	-1.8345e-01	1.3531e+03
215	1.8927e-01	1.5857e-01	8.8326e-02	-7.8264e-03	2.4620e+03
216	3.3624e-01	3.6129e-01	5.3162e-01	7.8768e-02	1.9888e+02
217	6.2647e-02	1.7068e-01	8.0980e-02	-1.1471e-01	2.1873e+03
218	2.6942e-01	3.4567e-01	4.0398e-01	-1.4559e-01	5.7014e+02
219	2.7964e-01	2.6047e-01	1.9574e-01	-2.9290e-01	1.2843e+03
220	1.7189e-01	5.4997e-02	1.7568e-01	-1.0490e-01	3.3358e+03
221	2.6452e-01	1.7864e-01	1.8979e-01	-3.2530e-01	2.1224e+03
222	5.4561e-02	2.3586e-01	1.5618e-01	-2.5638e-01	1.9072e+03
223	1.6988e-01	3.2475e-01	3.5079e-01	-5.0154e-01	6.3643e+02
224	1.6354e-01	6.9617e-02	1.3916e-02	-1.9191e-01	3.1122e+03
225	3.4765e-01	3.7070e-01	4.7165e-01	1.0482e-02	1.6591e+02
226	1.4738e-01	1.7275e-01	2.7307e-02	-7.9145e-02	2.3439e+03
227	3.9371e-01	3.9050e-01	7.0869e-01	-2.6999e-01	1.8379e+01
228	2.3245e-01	1.2732e-01	1.0995e-01	-2.2119e-01	2.6168e+03
229	8.8503e-02	3.1894e-01	1.8391e-01	-2.7725e-01	9.9591e+02
230	1.3439e-01	1.3207e-01	6.9910e-02	-6.7297e-02	2.6985e+03
231	1.6975e-01	1.3026e-01	2.0996e-01	-6.2459e-02	2.6903e+03
232	2.0118e-01	2.9334e-01	2.4243e-01	-3.4002e-01	1.0971e+03
233	2.0763e-01	1.0105e-01	1.6550e-01	-1.8166e-01	2.9397e+03
234	5.9371e-01	2.9629e-01	9.4956e-01	-2.2807e-01	-1.3054e+02
235	3.1728e-01	2.9965e-01	8.9063e-02	-3.4048e-01	1.5813e+03
236	3.0035e-01	3.7013e-01	5.1970e-01	-2.7514e-01	0.0000e+00
237	2.1153e-01	1.3598e-01	1.4470e-01	-1.9497e-01	2.5912e+03
238	4.1733e-02	2.9462e-02	-1.2356e-02	-7.1380e-02	3.3022e+03
239	3.5760e-01	3.7270e-01	5.9739e-01	-6.3555e-02	2.0562e+02
240	5.9505e-01	1.5581e-01	-4.1942e-01	-3.9773e-02	1.9359e+03
241	4.8756e-01	2.9013e-01	7.9118e-01	-3.3745e-01	8.0023e+02
242	5.2481e-01	3.4021e-01	8.6914e-01	1.4999e-02	-2.0614e+02
243	4.5517e-01	3.0151e-01	6.2671e-01	3.1648e-01	5.1723e+02
244	1.9446e-01	2.6347e-01	1.7637e-01	-3.3252e-01	1.3770e+03
245	9.4076e-02	2.9640e-01	1.7551e-01	-4.1962e-01	1.3624e+03
246	1.5686e-02	3.8101e-01	2.1369e-01	-5.0625e-01	0.0000e+00
247	4.0172e-01	5.5001e-02	4.3813e-01	2.7372e-02	3.3560e+03
248	4.1020e-01	3.9795e-01	7.0645e-01	-8.3731e-02	1.3026e+02
249	1.8963e-01	1.3689e-01	2.4201e-01	-3.5187e-01	2.7098e+03
250	1.2064e-01	1.8078e-01	2.7424e-03	-2.4641e-01	2.2739e+03
251	2.4876e-01	3.5732e-01	4.6546e-01	-1.4323e-01	0.0000e+00
252	3.9530e-01	3.7714e-01	6.6800e-01	-2.3889e-01	1.1053e+03
253	1.3108e-01	1.8763e-01	4.1273e-02	-1.8903e-01	2.2964e+03
254	2.9021e-01	3.5545e-01	4.9933e-01	-2.2890e-02	4.0088e+02
255	5.8288e-01	5.6026e-02	1.9709e-01	1.6817e-01	3.3270e+03
256	1.6714e-01	2.3384e-01	1.1958e-01	-1.7716e-01	1.7914e+03
257	2.8150e-02	2.0440e-02	-7.7526e-02	-3.4882e-02	3.2516e+03
258	1.2092e-01	6.5670e-02	8.7205e-02	-2.1112e-02	3.2196e+03
259	1.5486e-02	2.5361e-01	-1.3446e-01	-1.8970e-01	1.6836e+03
260	1.5950e-01	2.2126e-01	1.8367e-01	-4.1907e-01	1.7980e+03
261	7.6346e-02	1.5217e-01	1.8965e-02	-1.0766e-01	2.3403e+03
262	1.4039e-01	3.2836e-01	2.3974e-01	-5.3902e-02	4.1376e+02
263	1.5763e-01	2.9149e-01	2.2023e-01	-1.6837e-01	1.1196e+03
264	1.1570e-01	2.1965e-01	1.1950e-01	-8.0525e-02	1.8645e+03
265	1.0823e-02	2.6869e-01	8.6995e-02	3.2231e-02	1.3212e+03
266	7.7925e-03	2.9996e-01	1.6374e-01	-3.5756e-01	1.2304e+03
267	5.6011e-02	1.3138e-01	1.2451e-01	1.8062e-03	2.4992e+03
268	3.1407e-01	3.4846e-01	4.6313e-01	-1.9721e-01	1.0311e+03
269	4.8532e-01	3.1943e-01	8.4773e-01	-8.3632e-01	6.0480e+02
270	9.4604e-03	2.5139e-01	-1.5407e-01	-1.4670e-01	1.6850e+03
271	1.8029e-01	2.1658e-01	6.8495e-02	-1.5201e-01	1.9564e+03
272	1.3256e-01	2.8144e-01	1.1035e-01	-1.7600e-01	1.1573e+03
273	3.5293e-02	2.0225e-01	8.7793e-02	-2.0520e-01	1.9044e+03
274	2.6559e-01	1.9472e-01	-6.8222e-03	-1.3188e-01	2.0581e+03
275	1.2848e-01	1.4602e-01	1.5784e-01	-1.2217e-01	2.5110e+03
276	2.0273e-01	8.2310e-02	2.0536e-01	-5.1740e-02	2.9620e+03
277	3.0746e-01	3.4081e-01	5.3710e-01	-1.3683e-01	4.4732e+02
278	2.9041e-01	2.8518e-01	2.8358e-01	-1.1253e-01	1.1826e+03
279	1.7990e-01	3.4338e-01	2.0459e-01	-5.5739e-01	3.4620e+02
280	3.1622e-01	5.9568e-02	3.0219e-01	-4.1487e-02	3.3520e+03
281	1.0835e-01	3.6869e-01	1.6064e-01	-3.0458e-01	0.0000e+00
282	9.0511e-02	2.7269e-01	1.7006e-01	-1.5595e-01	1.6804e+03
283	3.6865e-02	3.2858e-01	8.4774e-02	-2.5422e-01	8.2182e+02
284	2.2355e-01	4.7137e-02	3.4177e-01	-1.8359e-01	3.3134e+03
285	1.9672e-01	2.1173e-01	-1.9364e-03	-4.6663e-02	1.9705e+03
286	1.3333e-01	1.2319e-01	5.9181e-02	-7.6670e-03	2.7649e+03
287	1.5395e-01	1.9608e-01	1.5226e-01	-2.0339e-01	2.1778e+03
288	4.1576e-01	3.6259e-01	6.7951e-01	6.6074e-02	5.0340e+02
289	9.7767e-02	1.6147e-01	1.7152e-01	-2.3220e-01	2.2641e+03
290	1.9445e-01	9.6587e-02	9.7157e-02	-1.8322e-01	3.1887e+03
291	1.3956e-01	1.2150e-01	3.1822e-02	-2.1061e-01	2.7066e+03
292	2.4845e-01	1.7959e-01	1.9258e-01	-2.0446e-01	2.0100e+03
293	3.0526e-02	3.4739e-01	3.2380e-01	-3.3785e-01	8.3469e+02
294	2.4257e-01	2.0468e-02	2.5955e-01	-6.9976e-03	3.4308e+03
295	1.4764e-01	1.4656e-01	1.1026e-01	-1.9852e-01	2.5632e+03
296	1.0280e-01	3.7069e-01	2.4300e-01	-4.8093e-01	0.0000e+00
297	2.3025e-01	3.1655e-01	2.4046e-01	-7.0893e-02	6.9681e+02
298	2.8827e-01	2.4471e-01	5.7622e-02	-4.0919e-01	1.5767e+03
299	1.2859e-01	9.4581e-02	1.5644e-01	-8.2231e-02	2.9718e+03
300	9.9985e-02	6.8782e-02	1.3535e-01	-2.0239e-01	3.1836e+03
301	2.2856e-01	9.6143e-02	2.1229e-01	-1.8119e-01	2.9728e+03
302	3.3441e-01	3.4484e-01	2.6499e-01	2.7002e-02	6.3609e+02
303	1.1745e-01	1.1589e-01	3.4567e-02	-1.3991e-01	2.6795e+03
304	4.7058e-01	3.3978e-01	8.4706e-01	-8.1414e-02	5.2843e+02
305	1.5874e-01	3.6263e-01	4.8470e-01	-1.5930e-01	0.0000e+00
306	2.1924e-01	1.2432e-01	9.7371e-02	-1.3783e-01	2.7638e+03
307	7.8363e-01	3.1653e-01	9.1626e-01	-1.0942e-02	0.0000e+00
308	2.3422e-01	1.4765e-01	1.9514e-01	-1.8332e-01	2.4887e+03
309	1.6903e-02	3.5588e-01	4.8169e-01	-1.4855e+00	-1.9867e+03
310	3.1850e-01	2.7860e-02	5.1024e-01	-1.8230e-01	3.2793e+03
311	1.7638e-01	8.5908e-01	2.4497e-01	-1.1483e+00	0.0000e+00
312	3.3945e-01	1.1963e-02	3.4552e-01	-2.2730e-02	3.1362e+03
313	3.3054e-02	2.1477e-01	2.4649e-02	-5.1715e-02	1.8584e+03
314	7.7915e-02	3.5141e-01	1.6050e-01	-3.0134e-01	4.8095e+02
315	2.3092e-01	2.9574e-01	2.1504e-01	-2.1225e-01	1.0438e+03
316	7.1579e-03	3.3257e-01	1.0000e-01	-3.4891e-01	4.1033e+02
317	2.4513e-01	2.3194e-01	1.1021e-01	-1.5145e-01	1.4946e+03
318	6.7957e-01	9.2338e-03	2.9706e-02	3.9254e-02	3.6985e+03
319	4.2664e-01	9.6710e-02	3.6891e-01	1.8218e-01	2.6772e+03
320	2.2201e-02	1.6799e-01	8.2132e-02	-1.4076e-01	2.3547e+03
321	1.8882e-02	3.5049e-01	4.5158e-02	-3.9731e-01	3.9718e+02
322	6.7970e-02	1.0222e-01	2.0254e-02	-1.5039e-01	2.7677e+03
323	1.5627e-01	3.4015e-01	5.0626e-01	-4.2486e-01	7.0874e+02
324	2.0443e-01	-1.4202e-03	3.8429e-01	-1.3704e-01	2.9652e+03
325	3.7625e-02	1.6742e-01	-3.4515e-02	-1.3148e-01	2.3147e+03
326	1.7945e-01	2.0988e-01	1.8746e-01	-5.9380e-02	2.0607e+03
327	1.4594e-01	3.3012e-01	4.7118e-01	-3.8627e-01	8.0341e+02
328	1.6883e-01	2.9001e-01	2.4030e-01	-2.3602e-01	1.3048e+03
329	2.2623e-02	1.7876e-01	-1.6910e-02	-9.1307e-02	2.1745e+03
330	1.0774e-01	2.6426e-02	-2.9929e-02	-1.4217e-01	3.3008e+03
331	9.8268e-02	1.2310e-01	6.9659e-02	-1.7742e-01	2.5636e+03
332	1.2066e-01	1.4175e-01	1.9373e-02	-7.1788e-02	2.5385e+03
333	4.5923e-03	1.6209e-01	-1.5617e-02	-7.7558e-02	2.2873e+03
334	2.8335e-02	1.8136e-01	1.1455e-01	-1.8104e-01	2.1156e+03
335	6.7286e-02	2.2623e-01	-4.6935e-02	-1.2254e-01	1.5862e+03
336	1.5908e-01	1.5395e-01	1.1149e-01	-1.7540e-01	2.4884e+03
337	1.7454e-01	1.7867e-01	6.3575e-02	-1.0478e-01	2.4161e+03
338	3.6459e-01	3.8780e-01	7.7413e-01	-2.7037e-01	0.0000e+00
339	1.0978e-01	2.2180e-01	1.7951e-01	-2.3987e-01	1.7332e+03
340	1.6523e-01	3.6968e-02	-2.4416e-03	7.8919e-02	3.2114e+03
341	1.6673e-01	1.8580e-02	1.7372e-01	2.5888e-02	3.4447e+03
342	1.1265e+00	6.6543e-01	1.6122e+00	-1.4111e+00	0.0000e+00
343	2.5814e-01	1.2731e-01	6.4418e-02	-2.3171e-01	2.6296e+03
344	2.2680e-01	2.8768e-01	2.5905e-01	-2.2452e-01	1.1913e+03
345	3.0369e-01	3.1715e-01	5.6159e-02	-7.6728e-02	4.6975e+02
346	7.0059e-01	4.3585e-01	1.0836e+00	-1.7370e+00	0.0000e+00
347	1.7559e-01	1.5781e-01	6.9667e-02	-3.0487e-01	2.5841e+03
348	5.6664e-02	3.0965e-01	2.5297e-01	-1.6129e-01	1.2171e+03
349	1.7066e-01	2.6702e-01	1.0511e-01	-1.7086e-01	1.3779e+03
350	9.2411e-02	8.1794e-02	4.9336e-02	-1.7919e-01	2.9852e+03
351	1.6268e-01	5.5935e-02	2.6567e-01	-1.0348e-01	3.1722e+03
352	7.1011e-01	3.8555e-01	4.4455e-01	4.2176e-01	0.0000e+00
353	1.7022e-01	1.0873e-01	3.2997e-01	-2.0976e-01	2.9170e+03
354	2.4467e-01	2.0024e-01	5.0392e-02	-2.6187e-01	1.9056e+03
355	7.3448e-02	2.4675e-01	2.9672e-01	-1.3266e-01	1.5577e+03
356	1.3503e-01	3.4319e-01	3.7295e-01	-2.4106e-01	3.5648e+02
357	1.3494e-01	2.3396e-01	1.5104e-01	-2.6703e-01	1.7504e+03
358	1.4385e-01	1.9180e-02	1.1827e-01	-1.7399e-01	3.3459e+03
359	1.2372e-01	1.6627e-01	3.1529e-02	-2.0099e-01	2.3227e+03
360	1.3807e-01	8.3894e-02	2.3746e-02	-1.5657e-01	3.1231e+03
361	2.2053e-01	3.5318e-01	3.6582e-01	-4.7500e-01	4.9601e+02
362	1.0625e-01	2.0127e-01	-4.1655e-02	-2.4262e-01	1.9896e+03
363	2.2666e-01	7.7420e-02	2.1230e-01	-1.6046e-01	3.1299e+03
364	2.0482e-01	2.1851e-01	1.2703e-01	-1.3360e-01	1.9173e+03
365	2.4394e-01	9.9914e-02	2.4431e-01	-2.2689e-01	3.0621e+03
366	2.2747e-01	5.4959e-02	2.0644e-01	-1.5159e-01	3.1577e+03
367	2.4342e-01	3.5806e-01	5.2518e-01	-1.7011e-01	0.0000e+00
368	8.0774e-03	3.6686e-01	-2.2721e-01	-3.8534e-01	0.0000e+00
369	1.3764e-01	1.7228e-01	5.1256e-02	-2.8888e-01	2.4108e+03
370	2.8054e-01	2.9576e-01	1.6452e-01	-3.1288e-01	8.1046e+02
371	1.9735e-01	1.5420e-01	9.3796e-02	-3.5686e-01	2.5463e+03
372	3.5549e-01	3.9650e-01	5.4545e-01	-1.9381e-01	0.0000e+00
373	1.6360e-01	2.5003e-01	3.5050e-03	-1.7351e-01	1.7002e+03
374	1.4715e-01	1.3453e-01	1.0563e-01	-1.3037e-01	2.6412e+03
375	4.9773e-01	1.5849e-01	-2.8995e-01	-2.6136e-02	2.1493e+03
376	6.7591e-01	3.6607e-01	2.3837e-01	4.3925e-01	4.1290e+02
377	2.1861e-01	3.2506e-01	3.5563e-01	-3.7679e-01	5.3653e+02
378	6.9330e-02	3.3299e-01	2.1340e-01	-3.2958e-01	3.2792e+02
379	2.4821e-01	3.4655e-01	2.8273e-01	-1.5215e-01	2.8478e+02
380	2.5239e-01	3.0212e-01	2.4953e-01	-3.0439e-01	9.4673e+02
381	6.6435e-01	2.6232e-01	1.8878e-01	3.7988e-01	1.2790e+03
382	5.1164e-01	3.1168e-01	6.5346e-01	2.3212e-01	-1.8375e+02
383	3.0441e-01	2.5413e-01	1.7435e-01	-4.0890e-01	1.1904e+03
384	1.7981e-01	3.3255e-01	3.7265e-01	-1.4982e-01	9.6244e+02
385	1.7522e-02	3.2859e-02	-4.0923e-02	-5.3747e-02	3.5043e+03
386	-8.2193e-04	3.8334e-02	2.1848e-02	-1.4016e-02	3.3654e+03
387	2.4918e-01	3.0908e-01	2.0802e-01	-1.9175e-01	7.2947e+02
388	8.3993e-02	1.2749e-01	1.7696e-01	-1.6120e-01	2.5262e+03
389	1.6225e-01	2.4724e-01	7.7025e-02	-2.2791e-01	1.7407e+03
390	7.9051e-02	1.7380e-01	5.4331e-02	-2.4540e-02	2.1125e+03
391	1.8666e-01	3.2108e-01	4.0856e-01	-2.6910e-01	7.7557e+02
392	2.0695e-02	1.2635e-01	1.0288e-01	-3.4899e-02	2.6614e+03
393	4.0236e-02	3.0866e-01	8.9539e-02	-1.8648e-01	1.1854e+03
394	2.0426e-02	2.7414e-01	1.5063e-02	-2.9488e-01	1.5723e+03
395	3.3969e-01	3.6947e-01	6.0382e-01	2.0768e-03	2.4636e+02
396	5.3395e-02	2.0631e-01	1.3757e-01	-1.0342e-01	1.7191e+03
397	5.1647e-02	1.4499e-01	2.0947e-02	7.6096e-03	2.4277e+03
398	9.0459e-02	1.3292e-01	-5.3912e-02	-1.9076e-01	2.6054e+03
399	-1.4953e-04	7.2053e-02	1.0496e-01	-3.7518e-02	3.1543e+03
400	3.7522e-02	1.4572e-01	-1.8169e-02	-3.0502e-01	2.4015e+03
401	3.7404e-01	2.0907e-02	4.1047e-01	-3.4397e-03	3.2313e+03
402	9.9154e-04	1.5197e-01	-6.4245e-02	-1.8417e-01	2.4101e+03
403	1.6282e-02	1.4350e-01	3.1096e-02	-6.2459e-02	2.7033e+03
404	1.8699e-01	1.2439e-01	1.4853e-01	-5.6269e-02	2.6368e+03
405	7.6415e-02	2.9718e-01	4.3460e-02	-1.6328e-01	1.1379e+03
406	9.3828e-02	1.4603e-01	9.5880e-02	-1.4951e-01	2.4153e+03
407	1.5052e-01	9.5448e-03	1.2557e-01	-4.1286e-02	3.1958e+03
408	4.0637e-01	6.7340e-02	3.7622e-01	-1.3450e-01	2.8165e+03
409	1.3637e-01	2.7604e-01	1.6530e-01	-1.3592e-01	1.3361e+03
410	1.8607e-01	2.9319e-02	1.4846e-01	-5.1029e-02	3.3719e+03
411	4.8208e-01	2.9146e-01	8.6113e-01	-3.7242e-01	9.9892e+02
412	3.3743e-02	1.6816e-01	3.8356e-03	-2.1546e-01	2.4344e+03
413	7.6390e-03	8.6596e-02	1.3731e-01	1.8503e-01	2.8985e+03
414	2.4011e-02	3.0419e-01	9.5232e-02	-1.8059e-01	8.8045e+02
415	1.7148e-01	3.4924e-01	3.3593e-01	-1.5582e-01	-1.0773e+02
416	1.8254e-01	2.7935e-01	3.4629e-01	-2.3777e-01	1.2915e+03
417	8.1841e-02	4.0201e-02	1.9171e-01	-6.9640e-02	3.2631e+03
418	1.9712e-01	3.0958e-01	3.6871e-01	-3.3503e-01	8.3885e+02
419	2.6070e-01	3.1850e-01	3.2774e-01	-1.1548e-01	6.3961e+02
420	1.5930e-01	1.6260e-01	7.3797e-02	-2.7257e-01	2.4481e+03
421	6.5376e-02	3.1354e-01	1.2142e-02	-3.7643e-01	1.2345e+03
422	2.9928e-01	3.7082e-01	5.7003e-01	-2.8718e-01	0.0000e+00
423	5.3164e-02	2.9051e-01	6.1266e-02	-2.0613e-01	1.3076e+03
424	1.2382e-01	1.0395e-01	2.1797e-01	-1.0336e-01	2.7718e+03
425	1.6031e-01	2.6691e-02	1.5837e-01	-5.1019e-02	3.2837e+03
426	1.9321e-01	3.3863e-01	3.3527e-01	-1.5213e-01	5.3909e+02
427	5.9154e-02	2.7202e-01	6.3580e-03	-2.9051e-01	1.7913e+03
428	1.9562e-02	1.2592e-01	-1.8429e-02	-9.1776e-02	2.7014e+03
429	2.1121e-01	2.7434e-01	1.7227e-01	-2.8096e-01	1.3695e+03
430	4.0843e-01	3.2625e-01	6.7808e-01	-7.8842e-02	6.7859e+02
431	1.2356e-01	1.6546e-01	2.2655e-02	-1.7221e-01	2.3136e+03
432	4.2429e-02	3.4141e-01	1.4128e-01	-2.8209e-01	3.1451e+02
433	1.7730e-01	2.8639e-01	-2.2040e-02	-2.9456e-01	1.1392e+03
434	2.0554e-01	1.6835e-01	4.2280e-02	-1.5159e-01	2.3998e+03
435	3.0291e-01	2.6918e-01	2.7433e-01	-2.5645e-01	1.4878e+03
436	4.5441e-01	3.3361e-01	7.6763e-01	-8.0170e-03	5.4190e+02
437	1.7965e-01	1.8910e-01	2.0839e-01	-2.0860e-01	2.2451e+03
438	1.8288e-01	2.9061e-01	1.9312e-01	-1.8346e-01	9.0845e+02
439	1.6159e-01	2.8150e-01	2.2964e-01	-3.9709e-01	1.2681e+03
440	2.5885e-01	1.7444e-01	1.4131e-01	-2.7617e-01	2.2164e+03
441	2.0320e-01	1.2432e-01	1.6836e-01	-1.7937e-01	2.7783e+03
442	2.1577e-01	1.0561e-02	1.2040e-01	8.9037e-02	3.0944e+03
443	1.6002e-01	1.0479e-01	8.5910e-02	4.4261e-02	2.8035e+03
444	2.3304e-01	1.5725e-01	1.8718e-01	-2.5518e-01	2.3541e+03
445	4.0881e-01	4.0982e-01	7.9767e-01	-1.4248e-01	0.0000e+00
446	1.9904e-01	2.3702e-01	1.9992e-01	-1.7414e-01	1.7582e+03
447	1.7910e-02	1.5483e-01	-2.0069e-02	-9.9269e-02	2.3078e+03
448	2.0943e-02	-3.1081e-03	7.4565e-02	4.8612e-02	3.1454e+03
449	2.7768e-02	3.4189e-02	3.6919e-02	-1.1911e-01	3.3452e+03
450	4.7155e-02	2.1290e-01	4.2965e-03	-1.6861e-01	1.7434e+03
451	2.0839e-02	3.2509e-01	-6.5297e-02	-3.8696e-01	5.6688e+02
452	1.1498e-01	-1.8219e-03	1.4333e-01	5.2835e-02	3.1688e+03
453	1.0649e-02	8.0993e-02	-1.0530e-01	-1.5909e-01	2.9807e+03
454	1.3212e-01	5.6168e-02	1.8774e-01	-2.2641e-02	3.2122e+03
455	5.2371e-02	1.1626e-01	1.0167e-01	-3.1460e-02	2.6545e+03
456	1.7584e-01	8.8105e-02	1.0193e-01	-1.7398e-01	3.0529e+03
457	1.5115e-02	3.1979e-02	3.1673e-02	1.4844e-02	3.4794e+03
458	4.9373e-02	1.0917e-01	1.0286e-01	-1.2877e-01	2.8013e+03
459	8.0011e-03	2.7850e-02	6.8914e-02	6.6367e-03	3.3290e+03
460	1.4653e-01	1.6290e-01	1.7757e-01	-1.2645e-01	2.4782e+03
461	1.3266e-02	2.9464e-01	-3.0220e-02	-2.7526e-01	1.1962e+03
462	6.2720e-02	2.8897e-01	6.4473e-02	-3.9814e-01	1.4318e+03
463	4.3925e-02	2.0075e-01	-2.7227e-02	-2.8595e-01	1.9052e+03
464	1.1669e-01	8.2442e-02	6.5832e-02	2.6933e-02	2.9459e+03
465	1.4828e-02	2.1348e-01	-4.7155e-02	-2.7026e-01	1.9094e+03
466	9.6626e-02	2.2316e-01	9.1179e-02	-1.6041e-01	1.7843e+03
467	1.7634e-01	2.4409e-01	1.6421e-01	-7.4194e-02	1.6441e+03
468	1.3055e-02	5.4235e-02	9.8981e-02	3.4393e-02	3.3711e+03
469	3.6434e-01	2.9701e-01	4.9537e-01	-3.9663e-01	1.0886e+03
470	4.2479e-02	7.2003e-02	8.4276e-02	-2.4502e-02	3.0267e+03
471	1.7003e-01	2.0144e-02	1.8924e-01	-8.4189e-02	3.4877e+03
472	7.3519e-02	2.0905e-01	-5.9759e-02	-1.6966e-01	1.7924e+03
473	1.0940e-01	3.1647e-01	2.2536e-01	-3.9382e-01	7.0691e+02
474	1.8191e-02	1.0150e-01	6.5769e-02	-1.5753e-01	2.8957e+03
475	2.0145e-02	2.3675e-01	-6.0526e-02	-4.8544e-02	1.6278e+03
476	2.5619e-01	3.2426e-01	4.4865e-01	-3.0487e-01	7.1644e+02
477	1.6733e-01	3.3016e-01	2.7873e-01	-1.0100e-01	6.2303e+02
478	5.4452e-02	2.6515e-01	6.1638e-02	-2.1707e-01	1.9206e+03
479	1.9715e-01	2.2010e-01	1.4276e-01	-2.7677e-01	1.9721e+03
480	1.2517e-01	3.5795e-01	1.1200e-01	-1.2788e-01	-1.3463e+03
481	2.5991e-01	6.7624e-02	2.1072e-01	-7.1220e-03	3.1467e+03
482	2.1296e-01	2.5452e-01	3.0415e-01	-3.7980e-01	1.4986e+03
483	3.7317e-02	1.3090e-01	1.4471e-01	-1.7662e-01	2.6353e+03
484	1.2816e-01	3.0366e-01	1.1241e-01	-1.8630e-01	1.0446e+03
485	6.4126e-02	9.3929e-02	3.4241e-02	-8.7961e-02	2.8609e+03
486	2.9555e-01	3.4633e-01	3.6052e-01	-5.9731e-02	2.3714e+02
487	7.2189e-02	2.7411e-01	2.3076e-01	-1.3008e-01	1.3214e+03
488	1.5407e-01	2.5283e-01	8.5572e-02	-5.3261e-02	1.5061e+03
489	7.4376e-02	3.1143e-02	1.6665e-01	-5.8987e-03	3.2512e+03
490	3.2419e-02	2.1523e-01	2.6830e-02	-1.9712e-01	1.8682e+03
491	1.1242e-02	1.8730e-01	-2.1922e-02	-1.5732e-01	2.0883e+03
492	1.5786e-02	3.1183e-01	-4.0458e-02	-3.5772e-01	1.1264e+03
493	1.8402e-01	2.4610e-01	3.4638e-02	-2.4208e-01	1.5336e+03
494	9.1852e-02	2.6914e-02	1.9593e-01	-1.7580e-02	3.3932e+03
495	1.9751e-01	1.7580e-01	7.6656e-02	-1.8244e-01	2.3660e+03
496	3.7164e-01	3.0376e-02	5.4012e-01	1.0180e-01	3.1381e+03
497	1.1951e-01	1.5521e-01	1.2539e-01	-2.8294e-01	2.3677e+03
498	2.3631e-02	3.5695e-01	5.3661e-02	-3.4194e-01	-1.0816e+03
499	9.7317e-02	9.8694e-02	-1.0262e-02	-2.0714e-01	2.8952e+03