variables="k","x","y","vx","vy","pressure"
zone i=8064 j=1
0	1.8188e-01	1.9405e-01	-5.3768e-02	3.2483e-02	1.2851e+03
1	1.1767e-01	2.8862e-01	-2.3338e-02	-3.6038e-02	4.5313e+02
2	6.6717e-02	2.1538e-01	-5.6451e-02	8.8252e-02	9.4545e+02
3	2.0227e-01	1.9652e-03	7.2942e-02	5.9549e-02	2.3087e+03
4	4.2359e-02	2.8764e-01	-8.2357e-02	5.8047e-02	5.4682e+02
5	4.0812e-01	2.8770e-02	2.2690e-01	1.0951e-01	2.4113e+03
6	2.4649e-01	2.1785e-01	3.5019e-03	-1.3510e-01	9.9589e+02
7	1.9121e-01	1.4230e-01	-9.3729e-02	5.6031e-02	1.6826e+03
8	-2.0899e-03	4.6687e-02	3.4564e-02	3.5699e-02	2.0531e+03
9	3.1015e-01	1.9112e-02	9.3142e-02	-1.2742e-01	2.7349e+03
10	1.1307e-01	2.2010e-01	-7.3489e-02	1.0212e-01	1.0062e+03
11	1.6687e-01	2.5151e-01	5.4061e-02	-9.8737e-03	7.5921e+02
12	5.4859e-01	1.3926e-01	-4.1725e-02	2.1555e-01	1.4928e+03
13	4.9894e-01	1.0477e-01	1.3841e-01	2.3298e-01	1.8713e+03
14	3.7258e-01	2.6657e-02	1.8258e-01	6.9896e-02	2.4429e+03
15	9.9714e-02	2.8753e-01	-4.0971e-02	7.9408e-02	5.7820e+02
16	1.7797e-01	2.6240e-01	8.1968e-02	6.6387e-02	6.5984e+02
17	7.2379e-01	1.1681e-01	1.9465e-01	2.2482e-01	1.4871e+03
18	7.1667e-01	1.6024e-01	2.7702e-01	-7.1405e-02	1.6659e+03
19	5.4366e-02	2.4799e-01	-5.4897e-02	7.5891e-02	7.4787e+02
20	1.2160e-01	2.5389e-01	-5.1029e-02	1.3539e-01	8.3592e+02
21	2.9997e-02	3.2087e-01	3.4489e-02	5.8439e-02	2.2671e+02
22	9.9264e-02	7.6487e-02	-4.3612e-02	8.7803e-02	1.9911e+03
23	2.0294e-01	9.7385e-02	-5.0728e-02	4.2810e-02	2.1748e+03
24	6.1242e-01	8.8394e-02	6.3058e-02	1.2217e-01	1.9803e+03
25	-8.6214e-04	1.9571e-01	9.5099e-02	-4.4434e-03	1.0483e+03
26	8.1041e-02	9.4621e-02	-5.6327e-02	1.3602e-02	1.8421e+03
27	1.5880e-01	8.8765e-02	-1.6233e-01	3.3930e-02	2.0506e+03
28	2.5915e-01	1.0115e-01	1.1456e-02	-2.2195e-02	2.1845e+03
29	2.2677e-01	2.0440e-01	1.2456e-01	-6.5206e-02	1.1308e+03
30	-1.1196e-03	1.3748e-01	3.7280e-01	2.6147e-02	1.4271e+03
31	8.7932e-02	8.8948e-02	9.0164e-04	-2.9383e-02	1.9054e+03
32	2.3299e-01	1.7078e-01	-8.8567e-02	-1.0427e-01	1.5559e+03
33	5.8558e-01	9.4465e-02	1.4898e-01	1.0519e-01	1.7977e+03
34	8.5415e-01	9.3648e-02	1.7382e-02	-1.7600e-01	2.0700e+03
35	8.5109e-01	2.4901e-01	-1.3279e-01	6.0473e-02	1.8980e+02
36	2.5394e-01	3.0655e-01	-2.0485e-02	9.4247e-02	0.0000e+00
37	7.8353e-01	2.8846e-01	2.2074e-01	1.8903e-01	0.0000e+00
38	6.6450e-01	2.4331e-01	2.5380e-01	-1.8908e-01	4.4280e+02
39	7.4477e-01	1.4353e-01	1.0725e-01	-2.4819e-01	1.5071e+03
40	1.8100e-01	2.1195e-01	-7.4058e-02	-8.7955e-03	1.1280e+03
41	1.7099e-01	7.3606e-02	-9.3907e-02	-4.1729e-02	2.2097e+03
42	1.5272e-01	3.5707e-02	1.5965e-02	-3.6588e-02	2.3577e+03
43	6.7256e-01	9.3177e-02	1.4705e-01	1.4328e-01	1.9485e+03
44	1.4644e-01	2.2879e-01	4.9595e-02	-5.2574e-02	1.0329e+03
45	7.7340e-01	1.0685e-01	1.0693e-01	-2.8811e-02	1.4929e+03
46	8.9666e-02	3.1113e-01	6.6166e-02	5.4140e-02	3.0657e+02
47	1.8851e-01	1.7569e-01	-1.5653e-01	-1.6647e-02	1.4550e+03
48	5.3318e-02	3.2233e-01	4.6569e-04	4.6900e-02	1.7630e+02
49	1.3856e-01	2.6381e-01	2.6893e-02	-6.3077e-02	6.7127e+02
50	6.9073e-01	1.3999e-01	4.5264e-02	1.3056e-02	1.4318e+03
51	1.0028e-01	2.6822e-01	-7.7980e-03	5.6500e-02	6.6869e+02
52	1.9576e-01	7.9135e-02	2.6464e-02	-1.1132e-01	2.2479e+03
53	9.8239e-03	2.4180e-01	-1.5279e-02	1.6539e-01	7.7082e+02
54	2.0843e-01	1.7587e-01	-1.4952e-01	-6.4145e-02	1.4059e+03
55	4.5318e-01	2.7087e-01	-5.6723e-02	-1.1936e-01	2.6521e+02
56	4.1299e-01	4.0333e-02	3.7874e-01	2.3255e-02	2.3431e+03
57	2.0061e-01	2.0809e-01	-5.8090e-02	8.2205e-02	1.1000e+03
58	7.3547e-01	1.6676e-01	2.8810e-01	-3.0606e-01	1.1600e+03
59	2.8095e-01	2.9756e-01	5.7001e-02	1.0722e-01	-3.3509e+01
60	2.5664e-02	2.3417e-01	-3.0771e-02	1.5482e-01	7.7124e+02
61	8.1779e-01	2.0094e-01	2.0723e-01	-1.6262e-01	8.4199e+02
62	8.5762e-01	6.7514e-02	-7.9401e-02	2.2125e-02	2.1687e+03
63	2.7212e-01	1.5595e-01	-1.2034e-01	-9.9965e-02	1.4691e+03
64	1.3145e-01	-6.3840e-03	1.9643e-01	1.1779e-02	2.0689e+03
65	-3.6653e-03	2.1050e-02	-1.1033e-01	-8.2664e-02	2.5994e+03
66	6.3947e-02	-4.4786e-03	6.7503e-03	1.6635e-01	2.2768e+03
67	1.4664e-01	2.1355e-01	-5.3933e-02	-5.8564e-02	1.0952e+03
68	2.2270e-02	1.0261e-01	-9.8069e-02	-4.9594e-03	1.6836e+03
69	7.5439e-02	1.9121e-01	-5.7721e-02	-1.1116e-02	1.0965e+03
70	2.0400e-02	1.7582e-01	-1.6016e-02	2.9781e-02	1.2306e+03
71	3.4153e-01	6.0631e-04	2.4365e-01	-8.3029e-02	2.3649e+03
72	5.1930e-01	1.2436e-01	2.9848e-03	1.9070e-01	1.5225e+03
73	1.4315e-01	2.5550e-02	6.5997e-02	-9.6778e-02	2.5229e+03
74	2.3411e-01	1.7832e-01	-1.6592e-01	-2.1169e-01	1.4255e+03
75	7.8970e-01	2.0786e-01	1.3031e-01	-3.4629e-02	8.9087e+02
76	2.3071e-01	1.5558e-02	3.4394e-02	-2.8395e-02	2.4799e+03
77	1.7841e-01	2.4831e-01	6.1384e-03	3.0107e-02	7.9703e+02
78	1.5230e-01	2.8276e-01	-3.2606e-03	1.0982e-02	4.3252e+02
79	1.3442e-01	1.7556e-01	-1.5354e-01	6.6982e-02	1.3611e+03
80	1.6467e-01	2.9456e-01	5.8230e-02	-5.1451e-02	3.4801e+02
81	4.7436e-01	9.8371e-02	1.2493e-01	2.0089e-01	1.7574e+03
82	2.6483e-01	1.2411e-01	-9.5553e-02	-1.7774e-01	1.9337e+03
83	8.1199e-01	7.9639e-02	-1.7588e-01	-3.2919e-02	2.0502e+03
84	1.0451e-01	2.4752e-01	-1.9161e-02	3.6457e-02	8.1085e+02
85	9.1010e-01	2.2611e-01	9.8945e-02	-7.5931e-03	7.4009e+02
86	1.3753e-01	1.8585e-01	-5.1040e-02	1.1188e-01	1.2314e+03
87	1.2157e-01	1.8987e-01	-1.1097e-02	7.5352e-02	1.2799e+03
88	2.2389e-01	2.1645e-01	-1.7627e-01	-1.4483e-01	9.9966e+02
89	5.8874e-01	4.9415e-02	1.1111e-01	-7.6521e-02	2.3886e+03
90	6.7128e-01	2.5799e-01	2.4482e-01	-2.3665e-02	3.4245e+02
91	8.2986e-02	3.3861e-01	-3.7361e-02	9.1539e-02	0.0000e+00
92	2.6174e-01	2.3399e-01	-3.2159e-01	-2.3062e-01	7.1216e+02
93	1.7068e-01	2.0010e-01	-1.3821e-02	-4.6918e-02	1.1923e+03
94	7.1499e-01	1.0114e-01	1.2091e-01	1.5000e-01	1.8091e+03
95	4.9666e-02	1.3998e-01	1.7969e-02	2.3116e-03	1.4467e+03
96	9.1297e-01	1.3339e-01	2.5897e-01	-1.0833e-01	1.7341e+03
97	2.4560e-01	1.7029e-01	-9.3091e-02	-2.3690e-01	1.4481e+03
98	5.3494e-01	1.6114e-01	-8.7094e-02	1.9317e-01	1.1160e+03
99	8.2869e-01	2.5875e-01	-1.9222e-01	-5.0099e-02	3.5563e+02
100	2.0661e-01	3.0457e-01	1.3132e-01	5.8096e-03	6.2360e+01
101	1.3806e-01	2.4633e-01	-6.1965e-03	-5.9557e-03	8.1975e+02
102	8.1130e-01	2.4369e-01	-7.3360e-02	-6.6801e-02	1.2120e+02
103	1.0390e+00	2.0259e-01	2.1364e-01	-1.1842e-01	8.4929e+02
104	3.1837e-02	3.0491e-01	4.2637e-02	1.5613e-01	5.0052e+02
105	3.3120e-01	2.4848e-02	1.6109e-01	3.0948e-02	2.6383e+03
106	2.4642e-01	1.1309e-01	-7.0629e-03	-1.6710e-01	2.0389e+03
107	3.2963e-01	9.3728e-02	1.4975e-01	-1.5237e-01	1.9698e+03
108	2.5045e-01	2.5534e-01	-2.0531e-01	-1.5854e-01	5.8598e+02
109	6.8762e-01	1.8035e-01	1.9264e-01	-7.1525e-02	1.3547e+03
110	9.6759e-01	2.3800e-01	5.0073e-02	-2.1461e-01	4.4456e+02
111	8.3347e-01	1.9109e-01	3.0490e-01	7.8391e-02	1.0429e+03
112	2.3486e-01	1.5429e-01	-1.3213e-01	-3.0098e-01	1.6080e+03
113	1.2312e-01	1.8666e-01	-7.0498e-02	8.1672e-03	1.3057e+03
114	1.2647e-01	2.9621e-01	-7.1899e-02	-6.8431e-02	3.0024e+02
115	3.0956e+00	3.3760e-02	3.5223e-01	-5.7022e-01	1.2251e+03
116	6.8852e-01	2.7029e-01	1.3761e-01	-2.3524e-01	2.2042e+02
117	8.1949e-01	9.1015e-02	7.4846e-03	-1.9477e-01	1.9656e+03
118	4.6836e-01	1.7557e-01	-2.2082e-01	-2.4048e-02	9.2986e+02
119	1.3648e-01	2.9560e-01	6.0094e-02	1.6424e-02	2.9144e+02
120	9.1202e-01	2.5494e-01	-1.8733e-01	-1.2856e-01	5.2834e+01
121	1.9669e-01	2.6538e-01	1.1487e-01	-1.5095e-01	5.8599e+02
122	1.1920e-01	2.4164e-01	2.1949e-02	3.4869e-02	9.2947e+02
123	4.8645e-01	2.3741e-01	-2.6743e-01	-3.9595e-02	4.3263e+02
124	1.7305e-01	1.1791e-01	-1.1749e-01	-3.7963e-02	1.8371e+03
125	6.5672e-01	3.3539e-02	-1.2843e-01	1.7151e-01	2.5116e+03
126	9.4647e-02	3.2102e-01	4.5996e-02	3.0027e-02	2.9459e+02
127	5.7022e-01	1.8031e-01	-1.6243e-01	2.9773e-01	8.8304e+02
128	2.1376e-01	2.0736e-01	-2.9705e-02	-1.8579e-01	1.0902e+03
129	-1.4802e-03	8.9931e-02	1.0891e-01	-3.5344e-02	1.7545e+03
130	7.9262e-01	2.1841e-01	7.3624e-02	-3.2622e-02	8.4829e+02
131	1.8002e-01	3.1589e-01	-2.9575e-02	-7.5563e-02	0.0000e+00
132	1.0474e-01	1.3304e-02	9.6348e-02	-7.6277e-02	2.2458e+03
133	1.6486e-01	2.3548e-03	7.8887e-02	6.9342e-02	2.5481e+03
134	5.6261e-02	7.1420e-02	-6.7846e-02	-1.0050e-01	2.0205e+03
135	1.2588e-02	2.6512e-01	5.7463e-03	8.9337e-02	6.7724e+02
136	8.6077e-02	2.8556e-01	-6.2920e-02	6.8285e-02	6.0382e+02
137	6.5136e-02	3.1634e-01	5.5776e-02	1.7310e-01	4.8010e+02
138	3.6837e-01	4.6544e-02	1.7473e-01	1.3243e-02	2.3643e+03
139	2.2992e-01	2.3574e-01	5.6760e-03	-1.7287e-01	8.8410e+02
140	1.7940e-01	2.3860e-01	5.1557e-03	3.6685e-02	8.4037e+02
141	2.0091e-01	2.3167e-02	-8.9199e-02	-6.3601e-02	2.2644e+03
142	1.3138e-02	3.1278e-01	-6.8056e-02	2.0026e-01	3.7973e+02
143	8.6075e-02	1.2447e-01	-3.2446e-02	-1.8744e-02	1.6655e+03
144	2.5207e-01	2.8013e-01	7.4237e-02	-7.5353e-04	1.9080e+02
145	1.8973e-01	2.9283e-01	5.7498e-02	7.4822e-02	2.4001e+02
146	7.9279e-01	2.4316e-01	-2.6389e-01	6.9641e-02	4.9679e+02
147	9.1743e-02	2.1842e-01	-1.2211e-01	4.7927e-02	1.0100e+03
148	1.1543e+00	2.4944e-01	3.8424e-01	-1.6790e-01	4.2288e+02
149	3.2423e-01	2.8549e-03	2.3316e-01	1.9311e-01	2.3182e+03
150	4.9790e-01	1.4997e-02	1.0156e-01	5.9918e-02	2.8998e+03
151	3.8393e-02	3.4477e-01	4.1551e-02	5.1448e-02	0.0000e+00
152	2.0719e-01	1.0719e-01	-1.2261e-02	-1.5750e-01	2.0212e+03
153	4.0655e-01	9.3961e-03	1.5361e-01	5.5126e-02	2.4357e+03
154	2.5246e-01	6.9149e-02	8.2813e-02	5.0943e-02	2.4047e+03
155	5.3355e-02	1.9243e-01	-1.4255e-01	7.5333e-03	1.0005e+03
156	3.4080e-01	1.1488e-01	-5.3297e-02	-2.3798e-01	1.6369e+03
157	1.3369e-01	3.1326e-01	6.3673e-02	-3.9525e-02	2.2636e+02
158	7.6117e-01	1.6687e-01	2.9625e-01	-2.1977e-01	1.0880e+03
159	1.9228e-01	1.7145e-03	7.6352e-02	1.5485e-01	2.4765e+03
160	6.5009e-01	1.4073e-02	5.3495e-02	-1.4595e-02	2.6077e+03
161	7.3441e-01	1.9683e-01	1.9356e-01	-1.7699e-01	7.9080e+02
162	2.1374e-01	9.3008e-02	-1.4356e-01	-5.7163e-02	2.1101e+03
163	1.1829e-01	3.2839e-01	1.9787e-02	1.5788e-02	0.0000e+00
164	2.8584e-01	7.0062e-02	-1.7735e-02	-1.5873e-01	2.4248e+03
165	1.9914e-01	2.2672e-01	-1.5176e-01	-7.8355e-02	9.4068e+02
166	3.9796e-01	2.8109e-01	-1.4917e-01	-1.5408e-01	2.5032e+02
167	2.0841e-01	2.1391e-01	-2.5526e-02	-8.0960e-02	1.0883e+03
168	1.5581e-01	7.1903e-02	-8.5357e-02	-3.2446e-02	2.0887e+03
169	2.2131e-01	1.5458e-01	-4.5979e-02	-1.5266e-01	1.5917e+03
170	5.3177e-02	1.2920e-01	-1.0515e-01	-5.5790e-02	1.5495e+03
171	3.0801e-01	5.8798e-02	1.4689e-01	-9.6367e-02	2.5085e+03
172	2.2451e-01	2.6510e-01	1.6013e-01	-6.6960e-02	6.2655e+02
173	1.3581e-01	1.6548e-01	-5.2435e-02	9.1085e-02	1.4089e+03
174	2.6403e-01	7.5557e-02	-1.0021e-01	-6.9676e-02	2.3531e+03
175	2.9157e-01	2.2734e-02	1.4507e-01	1.6495e-02	2.8590e+03
176	9.9974e-01	2.2131e-01	1.9652e-01	-2.1393e-01	6.0750e+02
177	2.4037e-02	3.0200e-01	-5.2994e-02	2.1767e-01	4.1583e+02
178	2.4750e-01	2.3553e-01	-9.3751e-02	-1.0469e-01	7.2469e+02
179	6.1807e-01	2.2525e-01	2.2302e-01	-3.1082e-01	3.6222e+02
180	1.1029e-01	3.3027e-01	8.3718e-02	1.6367e-02	1.0588e+01
181	2.4557e-01	2.0603e-01	-1.0258e-01	-1.0231e-01	1.0847e+03
182	9.8683e-02	2.3467e-01	-6.9719e-02	-3.8392e-02	8.3361e+02
183	1.2346e-01	2.0492e-01	-9.4604e-02	1.1577e-01	1.1350e+03
184	5.9584e-01	2.6634e-01	3.8358e-01	-2.6481e-01	0.0000e+00
185	1.4715e-01	3.1426e-01	1.1495e-02	-8.9511e-04	2.0790e+02
186	7.8017e-01	9.3858e-02	5.4397e-02	7.0267e-02	1.9637e+03
187	1.9562e-01	2.4238e-01	-3.6242e-02	-2.1643e-02	8.0769e+02
188	2.1894e-01	2.7829e-01	7.6330e-02	-2.9716e-02	3.1047e+02
189	8.1074e-01	1.8355e-01	4.3382e-01	-1.7768e-01	1.2511e+03
190	4.1389e-01	3.1444e-03	2.2895e-01	4.1301e-02	2.5024e+03
191	5.4595e-01	6.9414e-03	4.1065e-02	1.3297e-01	2.6909e+03
192	4.2177e-02	2.3902e-01	1.4250e-02	9.6030e-02	7.8168e+02
193	3.3347e-04	1.8596e-01	1.2603e-01	1.2177e-01	1.0832e+03
194	4.9497e-02	2.9192e-01	-7.2887e-02	1.4231e-01	4.5946e+02
195	1.5587e-01	3.9101e-02	2.5676e-02	5.3211e-02	2.2472e+03
196	-2.1628e-03	5.7687e-02	2.1444e-01	1.4754e-01	1.7539e+03
197	2.0783e-02	3.4033e-01	1.4881e-02	1.3488e-01	1.0128e+02
198	6.6169e-02	1.7171e-01	4.3688e-02	3.5194e-02	1.2171e+03
199	2.4342e-01	1.1331e-01	-1.1280e-01	-1.4254e-01	2.0182e+03
200	5.9781e-02	1.6636e-01	-1.0726e-01	-1.4475e-03	1.2529e+03
201	3.1429e-02	2.4039e-01	-3.4060e-03	3.2368e-02	7.9421e+02
202	1.9059e-01	1.2801e-01	-1.1185e-01	-4.6884e-02	1.9413e+03
203	8.6055e-02	1.0841e-01	2.7524e-05	-2.5694e-02	1.7425e+03
204	1.3693e-01	1.1393e-01	-3.2562e-02	5.9147e-02	1.8501e+03
205	1.6704e-01	3.0499e-01	-5.5086e-02	1.5191e-02	2.3357e+02
206	1.8033e-01	2.7295e-01	4.9949e-02	8.0862e-02	5.6456e+02
207	1.4525e-01	9.5947e-02	-9.5083e-02	3.5663e-02	1.8790e+03
208	4.3261e-02	2.4594e-01	-4.6793e-02	9.0782e-02	7.9672e+02
209	1.0370e-01	1.3484e-01	-3.2425e-02	3.2130e-02	1.5611e+03
210	3.1238e-01	3.7657e-02	8.3224e-02	4.2741e-02	2.7266e+03
211	1.4707e-01	2.9658e-01	7.1193e-02	-3.7860e-02	3.5806e+02
212	8.3562e-02	2.7409e-01	-9.1466e-02	1.4400e-01	6.5352e+02
213	1.1080e-01	6.1713e-02	-1.0428e-01	-1.4594e-02	2.1801e+03
214	2.6909e-02	2.8350e-01	-2.9781e-02	1.5067e-01	5.5370e+02
215	1.8076e-01	1.5743e-01	-5.5408e-02	2.9843e-02	1.5223e+03
216	6.8566e-01	2.4222e-01	1.4046e-01	-5.8108e-02	4.1800e+02
217	9.0847e-02	1.5709e-01	-8.3764e-03	4.6141e-02	1.4825e+03
218	2.6807e-01	2.0510e-01	-1.8355e-01	-9.9028e-02	1.0110e+03
219	5.1021e-01	2.7258e-02	2.8813e-01	-1.6485e-01	2.4676e+03
220	2.3637e-01	3.5077e-02	-1.9592e-02	-5.6600e-02	2.6043e+03
221	5.1342e-01	1.0996e-01	2.5497e-01	1.2868e-01	1.6224e+03
222	5.4268e-02	2.7107e-01	-5.7725e-02	1.7859e-01	5.7204e+02
223	2.7518e-01	2.1810e-01	-6.0492e-02	-2.5591e-01	7.8209e+02
224	2.0614e-01	1.4784e-02	1.1212e-01	2.4827e-02	2.3298e+03
225	5.9849e-01	1.9342e-01	-2.4221e-01	-4.5094e-02	7.2088e+02
226	1.0745e-01	1.6417e-01	-9.2072e-02	-1.8632e-03	1.3229e+03
227	7.1896e-01	1.7668e-01	2.5315e-01	-2.1232e-01	1.4048e+03
228	4.6309e-01	4.3664e-02	3.7678e-01	2.1858e-02	2.4457e+03
229	1.8480e-01	3.1397e-01	1.9677e-02	-1.1719e-01	0.0000e+00
230	1.2906e-01	1.5168e-01	-1.8196e-02	8.3614e-02	1.4841e+03
231	1.6641e-01	1.3406e-01	-4.4192e-02	1.7662e-02	1.7422e+03
232	1.5652e-01	1.7236e-01	-7.7553e-02	6.2714e-02	1.4168e+03
233	3.5845e-01	1.9903e-02	2.6367e-01	-8.7750e-02	2.6061e+03
234	7.4706e-01	1.2405e-01	9.0425e-02	-5.4933e-02	1.4119e+03
235	4.0009e-01	6.9241e-02	2.6393e-01	9.4412e-02	2.2265e+03
236	3.7698e-01	2.4661e-01	-2.3322e-01	-1.8645e-01	3.2615e+02
237	2.6756e-01	4.4838e-02	-7.4069e-03	-3.2432e-02	2.6841e+03
238	1.2778e-02	1.3633e-02	-2.8298e-02	3.3416e-02	1.9541e+03
239	6.8546e-01	2.2503e-01	1.0981e-01	-7.2272e-02	6.3747e+02
240	2.7352e-01	1.8765e-01	1.7832e-02	-1.8969e-01	1.2578e+03
241	3.8192e-01	2.5496e-01	-2.6249e-01	4.1686e-02	4.3500e+02
242	7.8075e-01	2.7787e-01	1.5208e-01	2.6547e-01	6.3824e+02
243	8.7953e-01	1.0100e-01	1.5783e-01	-1.9189e-01	1.9580e+03
244	1.5000e-01	2.4220e-01	-6.8230e-02	5.6652e-02	9.1759e+02
245	8.6011e-02	2.4879e-01	7.8419e-04	4.2820e-02	8.6679e+02
246	1.3747e-01	3.1436e-01	6.7955e-02	-8.7013e-02	1.9142e+02
247	6.5293e-01	1.3250e-01	9.4725e-02	1.6859e-01	1.3254e+03
248	7.6659e-01	2.0598e-01	1.2732e-01	-3.0001e-01	8.5028e+02
249	1.8408e-01	2.7214e-02	-1.5298e-01	2.8719e-02	2.3879e+03
250	9.6642e-02	1.0077e-01	-5.8036e-02	2.1105e-02	1.8705e+03
251	2.8673e-01	2.2246e-01	-8.7125e-02	-7.2261e-02	8.1609e+02
252	8.4955e-01	1.5854e-01	2.7843e-01	-3.7646e-02	1.3063e+03
253	6.9574e-02	2.3565e-01	-1.6216e-02	7.8526e-02	8.3279e+02
254	2.9007e-01	2.5303e-01	-1.7978e-01	-7.7832e-02	4.5688e+02
255	4.8615e-01	1.9447e-01	-3.4415e-01	2.4214e-01	6.5141e+02
256	1.7757e-01	1.8371e-01	2.7226e-02	1.8748e-02	1.3555e+03
257	2.7498e-02	5.2215e-02	1.4471e-02	-9.5730e-02	2.0133e+03
258	1.6442e-01	5.9424e-02	1.0566e-02	-3.2128e-02	2.2568e+03
259	2.3772e-02	2.6176e-01	6.8498e-03	1.4023e-01	7.1909e+02
260	1.6120e-01	2.0636e-01	-9.1389e-02	1.2771e-01	1.1323e+03
261	5.9637e-02	9.1752e-02	4.2073e-02	-2.1221e-03	1.8700e+03
262	2.4941e-01	2.7936e-01	-3.5218e-02	8.5172e-02	4.1327e+02
263	2.1898e-01	2.3449e-01	-4.0694e-02	-1.6010e-01	9.2960e+02
264	7.2417e-02	1.9630e-01	-1.7221e-01	1.1286e-01	1.0982e+03
265	1.3861e-02	3.3140e-01	5.4748e-03	1.3849e-01	2.1891e+02
266	1.9619e-02	3.3255e-01	3.7913e-02	1.0094e-01	1.4861e+02
267	3.8755e-02	1.4153e-01	-2.0900e-02	9.6401e-02	1.4063e+03
268	2.7531e-01	1.7362e-01	-8.0730e-02	-2.2948e-01	1.2582e+03
269	3.5916e-01	2.5632e-01	-3.4832e-01	-2.9991e-02	3.6443e+02
270	1.2791e-02	2.9508e-01	2.3501e-02	9.2506e-02	5.9609e+02
271	1.2379e-01	2.1104e-01	-1.2631e-01	1.0209e-01	1.0765e+03
272	1.6601e-01	2.4569e-01	1.0648e-02	1.3480e-02	8.1502e+02
273	2.3567e-02	2.1889e-01	2.1908e-03	8.7082e-02	8.9577e+02
274	2.5841e-01	4.8704e-02	2.9746e-02	-7.8489e-02	2.5015e+03
275	9.9841e-02	1.6423e-01	-8.1921e-02	1.3516e-01	1.2913e+03
276	3.2097e-01	1.6307e-02	7.3073e-02	6.5156e-02	2.6439e+03
277	3.9381e-01	5.7169e-02	2.6059e-01	-1.0866e-01	2.3620e+03
278	2.2334e-01	1.1832e-01	-1.5385e-01	-1.4002e-01	2.0529e+03
279	1.8301e-01	2.5316e-01	-3.2786e-02	2.5765e-02	7.8689e+02
280	5.7343e-01	6.8010e-02	5.4239e-02	9.9888e-02	2.1828e+03
281	1.5693e-01	3.1602e-01	4.2416e-02	6.0687e-03	6.5774e+01
282	1.3138e-01	2.5101e-01	-1.1618e-01	1.0963e-02	8.1334e+02
283	5.4698e-02	3.3828e-01	-1.1933e-01	9.8316e-02	0.0000e+00
284	5.1170e-01	7.5762e-02	1.5900e-01	1.5220e-01	2.0225e+03
285	1.4915e-01	1.8132e-01	-1.2123e-01	9.2488e-02	1.3419e+03
286	1.4152e-01	1.5177e-01	-2.1620e-02	6.2083e-02	1.5671e+03
287	1.0516e-01	1.8600e-01	-1.0992e-01	7.4571e-02	1.2886e+03
288	8.7391e-01	1.4593e-01	2.8179e-01	-1.2111e-01	1.6078e+03
289	4.4087e-02	1.3006e-01	-6.4279e-02	-2.7196e-02	1.5482e+03
290	2.6091e-01	3.3866e-02	1.3036e-01	2.6901e-02	2.5566e+03
291	1.1798e-01	1.0431e-01	-9.9948e-02	3.8635e-02	1.8931e+03
292	4.3410e-01	2.8080e-02	2.1879e-01	-3.2358e-02	2.5817e+03
293	7.3710e-02	3.3741e-01	-6.3698e-02	-4.2331e-03	0.0000e+00
294	4.9077e-01	2.7235e-02	-4.3089e-02	1.2849e-01	2.5066e+03
295	1.1470e-01	7.5080e-02	-5.7551e-03	-6.7296e-02	2.0369e+03
296	1.6762e-01	3.1634e-01	3.3298e-02	-1.6102e-03	3.7827e+01
297	2.4279e-01	3.0712e-01	1.7171e-03	-4.6359e-03	0.0000e+00
298	2.9638e-01	4.4894e-02	1.1571e-01	-1.5651e-01	2.5871e+03
299	1.7066e-01	5.9719e-02	-9.1584e-02	-2.0567e-02	2.2785e+03
300	9.4013e-02	6.7301e-02	-2.9683e-02	-8.5371e-02	2.0491e+03
301	3.4252e-01	3.9370e-02	1.1036e-01	-1.0322e-01	2.6788e+03
302	4.4919e-01	2.8388e-01	-7.9091e-02	-1.3066e-01	8.4676e+01
303	1.3762e-01	8.7627e-02	3.9812e-02	1.9168e-02	2.0349e+03
304	9.1780e-01	1.1252e-01	2.3405e-01	-9.6062e-02	1.6645e+03
305	2.6898e-01	2.2333e-01	-6.2537e-02	7.2647e-02	7.9642e+02
306	2.6459e-01	6.2385e-02	-2.8039e-02	-1.0588e-01	2.4752e+03
307	1.5271e+00	2.5573e-01	8.1442e-01	8.4535e-02	5.4863e+02
308	2.4953e-01	5.5651e-02	1.0129e-02	-9.2276e-02	2.4587e+03
309	6.6570e-02	2.7254e-01	7.1701e-03	1.4698e-01	5.5204e+02
310	6.2348e-01	1.0090e-01	2.2313e-01	6.0186e-02	1.8396e+03
311	1.7946e-01	8.7157e-02	-9.9011e-02	-2.4891e-02	2.0142e+03
312	5.7607e-01	1.7949e-02	3.3192e-02	2.6621e-02	2.5425e+03
313	2.1581e-03	2.2333e-01	-1.0121e-01	4.8935e-02	9.2068e+02
314	4.1609e-02	3.3964e-01	-5.4136e-02	8.2690e-02	0.0000e+00
315	2.3872e-01	1.8613e-01	-5.8512e-02	-2.3273e-03	1.3067e+03
316	5.5596e-02	3.4116e-01	9.7316e-02	9.5269e-02	0.0000e+00
317	2.1299e-01	1.4436e-01	-9.4516e-02	-1.1011e-01	1.7074e+03
318	6.9995e-01	1.0314e-01	-9.1402e-02	5.7189e-02	1.6959e+03
319	3.3269e-01	1.6783e-01	-5.5691e-02	-1.1078e-01	1.1469e+03
320	1.0060e-02	1.5248e-01	-2.8786e-02	-1.0132e-03	1.2669e+03
321	8.0361e-02	3.1064e-01	5.3182e-02	-1.3490e-02	1.8315e+02
322	4.3670e-02	5.7945e-02	-2.0259e-02	-3.4643e-02	2.0346e+03
323	2.1933e-01	1.7262e-01	3.0820e-02	-9.5796e-02	1.4828e+03
324	3.9790e-01	-2.5730e-03	2.7389e-01	-1.3695e-01	2.3832e+03
325	3.8583e-02	2.2366e-01	2.3780e-02	1.2467e-01	9.2325e+02
326	1.4293e-01	1.9997e-01	-1.2951e-01	1.2496e-01	1.1057e+03
327	2.3643e-01	2.0393e-01	-1.0236e-01	-7.3312e-02	1.2409e+03
328	1.8763e-01	1.5687e-01	-1.0977e-01	-3.1466e-02	1.6041e+03
329	2.3157e-02	1.9245e-01	3.4640e-02	6.1224e-02	1.0116e+03
330	1.3651e-01	2.6605e-02	3.4145e-02	6.9451e-02	2.3317e+03
331	9.6214e-02	1.1619e-01	-1.3945e-02	8.7538e-02	1.6593e+03
332	1.0451e-01	8.6922e-02	3.8758e-02	-1.2375e-01	1.9916e+03
333	3.4724e-02	1.4053e-01	-2.2560e-02	-2.4865e-02	1.4200e+03
334	1.2619e-02	2.0293e-01	-6.9439e-02	1.1451e-01	1.1250e+03
335	5.8468e-02	2.6539e-01	-3.3547e-03	9.2878e-02	6.4578e+02
336	1.2602e-01	6.6286e-02	1.4603e-02	-4.6540e-02	2.0637e+03
337	1.3910e-01	1.3197e-01	-1.8083e-01	6.3003e-02	1.6723e+03
338	7.7058e-01	1.6582e-01	4.5937e-01	3.0483e-03	1.2793e+03
339	1.0234e-01	1.7466e-01	1.4993e-02	1.3544e-01	1.2703e+03
340	2.1932e-01	4.3468e-02	4.9406e-02	1.8394e-02	2.3712e+03
341	2.1775e-01	2.0846e-02	9.4133e-02	6.7758e-02	2.4612e+03
342	1.5607e+00	9.5139e-02	2.3546e-01	2.6524e-01	2.1821e+03
343	4.4281e-01	1.6478e-02	4.2079e-01	8.0836e-02	2.7364e+03
344	3.4792e-01	6.7046e-02	3.0568e-01	-8.0078e-02	2.3043e+03
345	2.8007e-01	1.5680e-01	-8.3297e-02	-3.0029e-01	1.4372e+03
346	1.2469e+00	2.5151e-01	5.1892e-01	-1.4678e-01	3.2032e+02
347	2.0110e-01	4.4793e-02	5.6970e-02	-1.1800e-01	2.5124e+03
348	1.0322e-01	3.0406e-01	8.0926e-02	6.6927e-02	3.5347e+02
349	1.7186e-01	1.9483e-01	-1.2482e-01	2.0296e-02	1.2677e+03
350	1.1199e-01	4.8276e-02	-9.3250e-03	-8.2854e-02	2.2082e+03
351	2.0445e-01	5.4663e-02	-3.5453e-02	-1.3493e-02	2.3030e+03
352	1.4054e+00	2.9469e-01	6.3199e-01	-2.9836e-01	1.1801e+02
353	2.2779e-01	5.4012e-02	-2.6354e-02	9.5384e-03	2.4760e+03
354	1.8162e-01	1.7349e-01	-5.8662e-02	5.0664e-02	1.4796e+03
355	1.5325e-01	2.4680e-01	-5.2608e-02	-1.4102e-02	8.0962e+02
356	2.5477e-01	2.0688e-01	1.1421e-01	-1.6154e-01	9.3853e+02
357	1.2044e-01	1.5945e-01	-7.5710e-02	5.4783e-02	1.4582e+03
358	2.1294e-01	3.6134e-03	1.5596e-01	-9.3865e-03	2.5213e+03
359	8.8942e-02	1.4466e-01	-1.0212e-02	2.5948e-02	1.4383e+03
360	1.4150e-01	6.9335e-02	6.8881e-03	4.1714e-02	2.0436e+03
361	2.2522e-01	2.9979e-01	-4.1059e-02	-1.4606e-02	2.4425e+02
362	7.1794e-02	1.6098e-01	-2.5119e-02	-1.0936e-02	1.3203e+03
363	3.5736e-01	3.6834e-02	2.7756e-01	3.2806e-02	2.4583e+03
364	2.1069e-01	7.9035e-02	3.5001e-02	1.6118e-02	2.3028e+03
365	4.9887e-01	8.1946e-02	2.4499e-01	2.0493e-01	1.9807e+03
366	4.0070e-01	1.4369e-02	2.8893e-01	2.3447e-02	2.5031e+03
367	2.7369e-01	2.8612e-01	-2.5298e-02	6.8948e-02	1.5565e+02
368	7.6164e-02	3.3370e-01	6.0093e-03	-1.2087e-02	0.0000e+00
369	7.4138e-02	1.1099e-01	-9.1108e-02	3.8380e-02	1.7062e+03
370	3.7912e-01	5.3853e-02	2.0176e-01	-9.8992e-02	2.3440e+03
371	1.9077e-01	1.0670e-01	-9.3275e-02	-6.0699e-02	1.9590e+03
372	6.8118e-01	2.5864e-01	-1.4038e-02	1.1885e-01	4.9969e+02
373	7.9469e-02	2.0661e-01	-8.4832e-02	-3.9686e-02	1.0044e+03
374	1.1318e-01	1.1957e-01	-8.1986e-02	1.2609e-02	1.6857e+03
375	4.6777e-01	9.1154e-02	1.6405e-01	-3.5944e-03	1.9012e+03
376	7.0121e-01	2.1877e-01	1.9059e-01	-2.4512e-01	6.8079e+02
377	1.7164e-01	1.3463e-01	-2.0877e-01	-3.8720e-02	1.7752e+03
378	1.3596e-01	2.8344e-01	1.5684e-02	1.9603e-02	4.5491e+02
379	2.6885e-01	2.7908e-01	7.5408e-02	7.0367e-02	3.0674e+02
380	2.2994e-01	1.0935e-01	-5.3159e-02	-5.0460e-02	2.0719e+03
381	7.5857e-01	1.7038e-01	2.4684e-01	-2.2014e-01	9.8461e+02
382	8.7039e-01	6.9171e-02	-1.5316e-02	-8.4137e-02	2.2653e+03
383	3.3504e-01	1.8496e-02	2.4473e-01	-2.0147e-01	2.7228e+03
384	2.2323e-01	3.0049e-01	6.9040e-02	2.1060e-03	1.9809e+02
385	4.2816e-02	1.8400e-02	7.2665e-02	-8.0691e-02	2.4251e+03
386	-1.4307e-03	3.3236e-02	2.1427e-02	-9.8730e-03	2.2548e+03
387	2.0606e-01	1.7816e-01	-2.3927e-02	-1.0087e-01	1.3826e+03
388	1.0926e-01	1.4461e-01	-2.9851e-02	7.4811e-02	1.5254e+03
389	1.6852e-01	2.1768e-01	-5.1396e-02	1.2796e-01	1.0720e+03
390	5.1027e-02	1.7813e-01	-3.8799e-02	1.2502e-02	1.1583e+03
391	2.4686e-01	2.9168e-01	-3.9142e-03	-1.0098e-02	2.1875e+02
392	4.1892e-02	1.5695e-01	-2.0283e-02	-6.2796e-02	1.2774e+03
393	7.6018e-02	3.2048e-01	3.1676e-03	7.8715e-02	2.5780e+02
394	8.6092e-02	2.8028e-01	-3.6807e-02	1.2741e-02	6.6080e+02
395	6.7699e-01	2.2472e-01	1.2840e-01	2.6431e-02	6.6971e+02
396	1.1903e-02	2.1003e-01	1.8512e-02	1.0799e-01	1.0625e+03
397	1.4571e-02	1.4825e-01	-4.6157e-02	1.1223e-02	1.3523e+03
398	7.0157e-02	6.1022e-02	-7.6856e-03	-2.5992e-02	2.1779e+03
399	-4.4492e-04	7.2937e-02	1.0575e-01	7.9597e-02	1.8370e+03
400	3.7927e-02	9.6585e-02	-1.6166e-02	6.1526e-02	1.6955e+03
401	6.2934e-01	1.2345e-02	5.4903e-02	1.5523e-01	2.4898e+03
402	3.9380e-02	1.6230e-01	8.3836e-02	7.6927e-02	1.1987e+03
403	2.5918e-02	1.6570e-01	2.3522e-02	7.9738e-02	1.2628e+03
404	1.9248e-01	5.7947e-02	-1.4754e-02	-6.2070e-02	2.2630e+03
405	7.3417e-02	2.9116e-01	-6.1805e-02	1.1038e-01	5.6746e+02
406	6.0058e-02	8.6609e-02	-1.0492e-01	-1.2173e-05	1.8739e+03
407	2.3021e-01	2.6561e-03	1.2223e-01	-4.8993e-02	2.4418e+03
408	5.1773e-01	1.7739e-01	-1.1815e-01	1.9235e-01	1.1051e+03
409	1.9562e-01	2.8761e-01	1.0983e-01	-8.3741e-02	2.8818e+02
410	2.5372e-01	1.7789e-02	2.9130e-02	6.7627e-02	2.5586e+03
411	4.7020e-01	2.5931e-01	8.7799e-02	-3.2614e-02	3.7521e+02
412	6.6384e-02	1.5262e-01	2.4875e-02	3.8730e-02	1.3630e+03
413	3.2045e-02	6.9459e-02	-3.4193e-02	-7.3408e-02	1.9580e+03
414	1.0321e-01	3.0700e-01	3.3581e-02	1.3139e-01	3.8751e+02
415	2.0311e-01	2.4351e-01	6.8024e-02	-3.0999e-02	8.3616e+02
416	1.8819e-01	2.1442e-01	-7.2279e-02	-1.0103e-01	1.1095e+03
417	1.1796e-01	5.3459e-02	-1.1028e-02	3.8428e-02	2.2038e+03
418	1.9889e-01	1.6114e-01	-1.0514e-01	-3.5589e-02	1.5775e+03
419	2.1647e-01	1.9092e-01	-7.9306e-02	-4.1625e-02	1.3558e+03
420	1.3337e-01	1.3360e-01	-3.8005e-02	2.8165e-02	1.5936e+03
421	1.5821e-02	2.8461e-01	-9.3103e-02	2.5442e-01	5.8921e+02
422	5.9573e-01	2.6462e-01	3.2422e-01	-2.3056e-01	5.7072e+01
423	1.0040e-01	3.2640e-01	3.6235e-02	1.1951e-01	1.6206e+02
424	1.2733e-01	7.8422e-02	-5.5747e-03	-1.3797e-02	2.0724e+03
425	2.1286e-01	2.9650e-02	-2.1925e-02	-7.1682e-02	2.4409e+03
426	2.7303e-01	1.3666e-01	-4.8269e-02	-3.3075e-01	1.6371e+03
427	8.2377e-02	3.0569e-01	4.0346e-02	-2.5627e-02	3.0585e+02
428	1.2007e-02	1.1120e-01	1.6641e-02	3.8121e-02	1.6121e+03
429	1.6169e-01	2.3332e-01	-2.2504e-02	1.3769e-01	9.4040e+02
430	8.7780e-01	9.1748e-02	1.1085e-02	-1.6953e-01	2.0528e+03
431	7.6249e-02	1.6339e-01	-1.2876e-01	4.0589e-02	1.3104e+03
432	1.1939e-01	3.2911e-01	-2.3037e-02	-3.2558e-02	0.0000e+00
433	1.2901e-01	2.3274e-01	-5.5592e-02	7.4941e-02	9.3687e+02
434	2.2104e-01	8.8862e-02	-1.8130e-02	-4.0337e-02	2.1228e+03
435	3.9862e-01	1.2578e-01	4.5199e-02	-3.9710e-02	1.4174e+03
436	7.7748e-01	5.7034e-02	-9.0676e-02	-6.3315e-02	2.1692e+03
437	1.5877e-01	1.3899e-01	-7.3526e-02	3.1153e-02	1.6209e+03
438	2.4027e-01	2.2409e-01	-5.2694e-02	-2.1491e-01	7.4981e+02
439	1.3541e-01	2.4122e-01	2.1224e-03	1.1634e-01	8.7593e+02
440	4.2029e-01	2.8338e-02	2.9549e-01	8.6987e-02	2.5723e+03
441	2.3255e-01	2.4304e-02	-6.3079e-02	-4.6771e-02	2.4589e+03
442	3.1356e-01	2.0813e-02	2.1453e-01	6.4557e-02	2.6707e+03
443	1.9631e-01	8.8322e-02	-1.1370e-01	-4.3475e-02	2.2016e+03
444	2.9133e-01	9.1272e-03	1.0264e-01	-1.1197e-01	2.5852e+03
445	8.5255e-01	2.0773e-01	5.3812e-03	8.3453e-02	6.9482e+02
446	2.2153e-01	1.0554e-01	-2.1771e-03	-5.5996e-02	2.0462e+03
447	1.2924e-02	1.7487e-01	-2.4904e-02	4.0250e-02	1.2087e+03
448	6.6062e-03	-4.6219e-03	1.2174e-01	5.1685e-02	2.2182e+03
449	3.5771e-02	9.7600e-03	-9.3062e-02	-7.6784e-02	2.2757e+03
450	5.3636e-04	2.3876e-01	7.0822e-02	6.1829e-02	8.3358e+02
451	2.4192e-03	3.2926e-01	-4.4484e-02	2.3465e-01	2.4373e+02
452	1.7913e-01	-2.9362e-03	1.8923e-01	5.1982e-02	2.2067e+03
453	3.1654e-02	8.9586e-02	-1.1900e-02	-4.2746e-02	1.7661e+03
454	1.3705e-01	7.7695e-02	-3.4531e-02	4.9093e-02	2.1150e+03
455	7.7110e-02	1.4689e-01	2.3574e-02	2.1526e-02	1.3751e+03
456	2.0493e-01	3.3451e-02	-7.0465e-02	6.2601e-02	2.3662e+03
457	3.7841e-02	5.4754e-02	3.9771e-02	-2.4241e-02	2.1194e+03
458	1.1601e-02	6.2815e-02	6.5749e-02	-6.0368e-04	1.8840e+03
459	6.3833e-02	8.9386e-03	1.4336e-02	-1.0695e-02	2.2366e+03
460	1.4817e-01	1.6617e-01	-1.2657e-01	1.4008e-01	1.3686e+03
461	6.0791e-02	3.2239e-01	2.5065e-02	7.8630e-02	3.3867e+02
462	4.7061e-02	3.1713e-01	1.8329e-02	1.3094e-01	3.0623e+02
463	1.4980e-02	1.9017e-01	1.1369e-01	4.7547e-02	1.0314e+03
464	9.2453e-02	5.2210e-02	-5.5456e-02	-2.5007e-02	2.2274e+03
465	2.7506e-03	2.8552e-01	9.5954e-02	8.5939e-02	4.3964e+02
466	9.4350e-02	1.9734e-01	-1.4631e-01	1.2031e-01	1.0795e+03
467	1.9083e-01	2.0635e-01	-6.7052e-02	2.2218e-02	1.1510e+03
468	1.0929e-02	7.1867e-02	7.8294e-03	-2.3927e-02	1.8687e+03
469	2.8501e-01	2.5886e-01	-8.8567e-02	-2.7745e-02	4.3099e+02
470	4.5567e-02	8.2011e-02	-1.4532e-03	6.7848e-02	1.9232e+03
471	2.4226e-01	1.4027e-02	-6.2675e-02	-4.7364e-03	2.5662e+03
472	2.6626e-02	2.7386e-01	2.1385e-02	9.8191e-02	6.3827e+02
473	1.1996e-01	2.2247e-01	-5.2339e-02	2.6387e-02	9.8977e+02
474	2.2105e-02	8.4622e-02	-1.4297e-02	2.6893e-02	1.8275e+03
475	7.1995e-03	2.7660e-01	-4.6748e-02	5.8431e-02	5.6948e+02
476	3.0254e-01	6.8853e-02	1.2965e-02	-1.9728e-01	2.4124e+03
477	2.2322e-01	1.8583e-01	5.7533e-02	-9.7586e-02	1.3453e+03
478	6.5386e-02	3.0563e-01	3.6746e-02	1.2504e-01	3.7702e+02
479	1.6742e-01	1.6474e-01	-9.1937e-03	7.4546e-02	1.4358e+03
480	2.0813e-01	2.9186e-01	3.6092e-02	-5.7359e-02	1.8716e+02
481	3.8848e-01	4.2496e-02	3.7502e-01	-5.6375e-04	2.4861e+03
482	3.5129e-01	7.3000e-02	2.3679e-01	-4.3259e-02	2.2305e+03
483	3.6500e-02	8.3027e-02	-3.3968e-02	-1.5214e-02	1.8742e+03
484	1.3536e-01	2.7413e-01	-4.4597e-02	-7.1543e-02	5.8356e+02
485	6.1591e-02	6.6594e-02	5.1968e-02	8.1472e-03	2.1234e+03
486	3.0199e-01	2.8943e-01	-2.2670e-01	5.6475e-02	2.8725e+02
487	1.0537e-01	2.8812e-01	-4.6460e-02	1.8109e-02	5.3793e+02
488	1.5271e-01	2.5804e-01	8.7282e-03	4.8750e-02	7.5732e+02
489	1.1874e-01	1.8357e-02	7.8781e-02	1.0751e-01	2.2474e+03
490	3.6352e-02	1.7340e-01	1.3022e-02	-3.3289e-04	1.1846e+03
491	3.2621e-02	2.5169e-01	6.1699e-03	7.6523e-02	7.4630e+02
492	2.0698e-02	3.4460e-01	-7.2994e-02	8.9267e-02	0.0000e+00
493	1.4533e-01	2.5676e-01	4.9345e-02	8.9833e-02	7.4374e+02
494	1.9654e-01	1.6016e-02	7.5712e-02	-2.3440e-02	2.4632e+03
495	1.3757e-01	1.9749e-01	-1.6883e-01	7.5787e-02	1.1430e+03
496	6.6395e-01	9.7337e-02	-2.3034e-02	9.3337e-02	1.7450e+03
497	9.8263e-02	1.5458e-01	-7.8556e-02	-4.3415e-03	1.5323e+03
498	3.4865e-02	3.1245e-01	-4.6649e-02	4.1816e-02	4.3828e+02
499	1.0340e-01	3.1530e-02	3.9549e-02	-1.0385e-01	2.3329e+03