variables="k","x","y","vx","vy","pressure"
zone i=8064 j=1
0	1.7988e-01	1.9515e-01	-4.4402e-02	1.7217e-02	1.2469e+03
1	1.1697e-01	2.8657e-01	-1.5198e-02	-5.9420e-02	5.1606e+02
2	6.4622e-02	2.1942e-01	-4.5312e-02	1.0652e-01	1.0588e+03
3	2.0545e-01	1.2529e-03	1.1178e-01	1.4677e-01	2.3147e+03
4	3.8692e-02	2.8948e-01	-9.4180e-02	3.7519e-02	5.2597e+02
5	4.1757e-01	3.3436e-02	2.5181e-01	1.1406e-01	2.4190e+03
6	2.4896e-01	2.1320e-01	1.5664e-01	-1.1145e-01	7.4975e+02
7	1.8656e-01	1.4519e-01	-1.5220e-01	6.0701e-02	1.6974e+03
8	-2.0982e-03	4.9873e-02	3.5093e-02	1.0332e-01	2.3399e+03
9	3.1358e-01	1.4807e-02	1.3886e-01	-8.1486e-02	2.4781e+03
10	1.1010e-01	2.2400e-01	-7.7607e-02	1.0336e-01	9.9775e+02
11	1.6835e-01	2.5100e-01	2.1307e-02	-1.2955e-03	7.8315e+02
12	5.4707e-01	1.4483e-01	-4.4593e-02	1.1772e-01	1.3972e+03
13	5.0429e-01	1.1557e-01	1.2745e-01	2.7706e-01	1.6927e+03
14	3.8052e-01	2.8770e-02	2.1666e-01	3.0736e-02	2.4783e+03
15	9.7734e-02	2.9050e-01	-5.3271e-02	7.6144e-02	5.4457e+02
16	1.8170e-01	2.6494e-01	1.0143e-01	6.2264e-02	6.0039e+02
17	7.3084e-01	1.2481e-01	1.4439e-01	1.4608e-01	1.5638e+03
18	7.2652e-01	1.5665e-01	2.4850e-01	-1.3573e-01	1.2158e+03
19	5.2876e-02	2.5029e-01	-1.8418e-02	4.5455e-02	7.5960e+02
20	1.1944e-01	2.5865e-01	-5.0209e-02	1.1351e-01	7.6464e+02
21	3.1234e-02	3.2285e-01	4.2186e-02	5.5576e-02	2.3328e+02
22	9.7611e-02	7.9598e-02	-1.4501e-02	5.3121e-02	2.1664e+03
23	2.0043e-01	9.9934e-02	-9.1650e-02	5.4260e-02	2.0745e+03
24	6.1506e-01	9.3590e-02	6.1766e-02	1.4738e-01	1.7840e+03
25	-8.7614e-04	1.9595e-01	9.4878e-02	3.5709e-02	1.1660e+03
26	7.8538e-02	9.4920e-02	-4.4941e-02	-2.1284e-02	2.1435e+03
27	1.5169e-01	8.9934e-02	-1.6372e-01	2.0108e-02	2.1673e+03
28	2.6101e-01	9.9640e-02	5.2843e-02	-2.8228e-02	1.9759e+03
29	2.3085e-01	2.0146e-01	7.5145e-02	-7.0565e-02	1.2619e+03
30	-1.1463e-03	1.3916e-01	3.7320e-01	6.7668e-02	1.5498e+03
31	8.8354e-02	8.7671e-02	1.0401e-02	-9.3706e-03	2.1366e+03
32	2.3057e-01	1.6675e-01	-2.2882e-02	-1.0755e-01	1.5755e+03
33	5.9131e-01	9.8766e-02	1.2177e-01	1.1714e-01	1.9309e+03
34	8.5536e-01	8.6528e-02	5.6236e-02	-1.8482e-01	2.1062e+03
35	8.4483e-01	2.5147e-01	-1.6613e-01	5.6855e-02	2.4644e+02
36	2.5331e-01	3.0903e-01	-7.9225e-03	3.9400e-02	0.0000e+00
37	7.9401e-01	2.9334e-01	2.7533e-01	6.6557e-02	0.0000e+00
38	6.7398e-01	2.3739e-01	2.1508e-01	-8.4450e-02	4.6630e+02
39	7.4688e-01	1.3618e-01	7.7499e-02	-1.2218e-01	1.8747e+03
40	1.7757e-01	2.1181e-01	-9.1909e-02	1.4630e-02	1.0337e+03
41	1.6548e-01	7.1671e-02	-1.6137e-01	-7.1269e-02	2.2643e+03
42	1.5286e-01	3.4748e-02	-2.3751e-02	1.7667e-02	2.4283e+03
43	6.7901e-01	9.9954e-02	1.8982e-01	1.8995e-01	1.8129e+03
44	1.4883e-01	2.2700e-01	7.9855e-02	-4.2201e-02	9.0000e+02
45	7.7840e-01	1.0870e-01	1.3510e-01	8.7755e-02	1.8210e+03
46	9.2722e-02	3.1316e-01	8.7434e-02	5.5449e-02	2.5158e+02
47	1.8374e-01	1.7500e-01	-7.3604e-02	-1.6667e-02	1.4709e+03
48	5.2803e-02	3.2347e-01	-2.7371e-02	2.0916e-02	2.2305e+02
49	1.3969e-01	2.6035e-01	2.3051e-02	-1.0045e-01	7.0841e+02
50	6.9311e-01	1.3830e-01	1.0143e-01	-8.3027e-02	1.6545e+03
51	9.9345e-02	2.6991e-01	-3.4175e-02	3.8719e-02	7.2272e+02
52	1.9751e-01	7.5535e-02	3.4182e-02	-6.2989e-02	2.2653e+03
53	9.1303e-03	2.4806e-01	-3.1244e-02	1.4573e-01	8.1890e+02
54	2.0419e-01	1.7416e-01	-6.0472e-02	-3.5065e-02	1.5147e+03
55	4.5220e-01	2.6528e-01	8.2543e-03	-1.3890e-01	3.3787e+02
56	4.2779e-01	4.3734e-02	3.5439e-01	1.4144e-01	2.3666e+03
57	1.9830e-01	2.1088e-01	-4.1282e-02	3.6100e-02	1.2138e+03
58	7.4538e-01	1.5603e-01	2.3399e-01	-1.9374e-01	1.9253e+03
59	2.8325e-01	3.0123e-01	5.8799e-02	8.0829e-02	0.0000e+00
60	2.4866e-02	2.4057e-01	-5.7712e-03	1.6589e-01	7.8739e+02
61	8.2735e-01	1.9417e-01	2.8907e-01	-1.8994e-01	9.6349e+02
62	8.5439e-01	6.8154e-02	-5.4050e-02	1.1513e-02	2.2896e+03
63	2.6772e-01	1.5466e-01	-9.6033e-02	1.9524e-02	1.3653e+03
64	1.3750e-01	-6.4835e-03	2.5645e-02	1.3901e-02	2.2339e+03
65	-3.7291e-03	1.9293e-02	-1.1055e-01	-6.1002e-02	2.1273e+03
66	6.6151e-02	-4.5348e-03	7.0316e-02	1.6765e-01	2.4750e+03
67	1.4457e-01	2.1132e-01	-4.6596e-02	-3.8053e-02	1.0863e+03
68	1.8999e-02	1.0283e-01	-4.2194e-02	1.4504e-02	2.0074e+03
69	7.3358e-02	1.9032e-01	-5.3832e-02	-1.6461e-02	1.2417e+03
70	1.9917e-02	1.7643e-01	2.3172e-03	4.2852e-03	1.3541e+03
71	3.5116e-01	9.6952e-04	2.1506e-01	1.6992e-02	2.3369e+03
72	5.2067e-01	1.3148e-01	5.8185e-02	1.6558e-01	1.4673e+03
73	1.4735e-01	2.2880e-02	7.9661e-02	-1.6089e-03	2.3325e+03
74	2.2956e-01	1.7012e-01	-6.3597e-02	-1.7067e-01	1.5570e+03
75	7.9371e-01	2.0389e-01	9.7159e-02	-1.5932e-01	1.1749e+03
76	2.3388e-01	1.4376e-02	1.2075e-01	-2.3047e-02	2.5572e+03
77	1.7989e-01	2.4843e-01	7.4584e-02	-1.2105e-02	7.2227e+02
78	1.5239e-01	2.8250e-01	1.7348e-02	-2.0503e-02	3.8013e+02
79	1.2816e-01	1.7788e-01	-1.4392e-01	5.2252e-02	1.4398e+03
80	1.6744e-01	2.9227e-01	7.9234e-02	-4.8018e-02	3.5615e+02
81	4.7802e-01	1.0651e-01	5.2823e-02	1.9674e-01	1.7048e+03
82	2.6094e-01	1.1712e-01	-1.1777e-01	-1.8112e-01	1.9292e+03
83	8.0770e-01	7.8298e-02	-5.7315e-02	-1.1597e-02	2.1055e+03
84	1.0390e-01	2.4859e-01	-1.3487e-02	2.7947e-02	8.9115e+02
85	9.1237e-01	2.2587e-01	3.2386e-02	1.6848e-04	6.0519e+02
86	1.3577e-01	1.9101e-01	-2.6428e-02	1.3621e-01	1.3181e+03
87	1.2089e-01	1.9208e-01	-3.3412e-02	3.6024e-02	1.2384e+03
88	2.1955e-01	2.1244e-01	-5.4387e-02	-6.2783e-02	1.1355e+03
89	5.9227e-01	4.6469e-02	4.8884e-02	-4.8674e-02	2.0607e+03
90	6.7938e-01	2.5583e-01	1.4969e-01	-8.0165e-02	2.8559e+02
91	8.1961e-02	3.4035e-01	-1.3754e-02	-1.2041e-04	0.0000e+00
92	2.4835e-01	2.2359e-01	-3.0366e-01	-2.6354e-01	7.7568e+02
93	1.7041e-01	1.9760e-01	-6.9357e-03	-5.2058e-02	1.2190e+03
94	7.2063e-01	1.0538e-01	1.6659e-01	4.6858e-02	1.8197e+03
95	5.1219e-02	1.3879e-01	4.1602e-02	-5.6973e-02	1.7054e+03
96	9.2167e-01	1.3131e-01	2.1031e-01	-1.9484e-02	1.5926e+03
97	2.4290e-01	1.6406e-01	-4.1128e-02	-8.8095e-02	1.6205e+03
98	5.3248e-01	1.7044e-01	-5.7019e-02	2.8470e-01	1.0904e+03
99	8.2085e-01	2.5752e-01	-2.1408e-01	-7.1984e-02	9.7216e+01
100	2.1192e-01	3.0522e-01	1.2698e-01	3.9085e-02	1.1274e+02
101	1.3821e-01	2.4608e-01	4.6166e-03	1.5751e-03	8.5895e+02
102	8.0804e-01	2.4210e-01	-8.4003e-02	1.4845e-02	5.2603e+02
103	1.0471e+00	1.9798e-01	2.0116e-01	-9.9170e-02	8.9467e+02
104	3.3364e-02	3.0928e-01	3.4698e-02	6.7124e-02	4.0423e+02
105	3.3690e-01	2.5396e-02	1.6053e-01	-2.2833e-02	2.6024e+03
106	2.4540e-01	1.0586e-01	-2.0948e-02	-1.5482e-01	2.1248e+03
107	3.3552e-01	8.7961e-02	1.5705e-01	-9.1808e-02	2.0037e+03
108	2.4376e-01	2.4945e-01	-1.4338e-01	-1.2229e-01	7.1684e+02
109	6.9266e-01	1.7739e-01	1.0320e-01	-5.9278e-02	1.3739e+03
110	9.6996e-01	2.2913e-01	7.7818e-02	-2.1715e-01	5.2743e+02
111	8.4416e-01	1.9435e-01	1.9155e-01	9.4869e-02	1.0756e+03
112	2.2782e-01	1.4336e-01	-2.0939e-01	-2.2701e-01	1.7859e+03
113	1.2050e-01	1.8621e-01	-7.6717e-02	-9.1780e-03	1.3176e+03
114	1.2369e-01	2.9340e-01	-5.8559e-02	-6.4475e-02	3.3644e+02
115	3.1060e+00	1.5428e-02	1.6933e-01	-3.7543e-01	1.5462e+03
116	6.9434e-01	2.6265e-01	1.6063e-01	-1.2207e-01	3.1303e+02
117	8.1983e-01	8.3668e-02	1.1565e-02	-1.5689e-01	2.1504e+03
118	4.5817e-01	1.7520e-01	-2.7722e-01	-1.8524e-02	1.0897e+03
119	1.3951e-01	2.9536e-01	8.4655e-02	-2.7037e-02	3.7183e+02
120	9.0490e-01	2.5062e-01	-1.6643e-01	-7.6740e-02	1.5058e+02
121	2.0114e-01	2.5966e-01	1.1378e-01	-1.1510e-01	6.4556e+02
122	1.2042e-01	2.4236e-01	4.1488e-02	-2.5505e-03	8.9904e+02
123	4.7357e-01	2.3646e-01	-3.6586e-01	2.6051e-02	6.6880e+02
124	1.6908e-01	1.1642e-01	-5.6491e-02	-4.4992e-02	1.9239e+03
125	6.5232e-01	3.8877e-02	-1.1676e-01	6.0621e-02	2.4587e+03
126	9.7110e-02	3.2106e-01	7.8923e-02	-1.7866e-02	3.1518e+02
127	5.6175e-01	1.9169e-01	-2.2292e-01	2.6016e-01	9.7033e+02
128	2.1248e-01	2.0011e-01	-3.9862e-02	-1.6071e-01	1.2009e+03
129	-1.5120e-03	8.7409e-02	1.0879e-01	-7.8354e-02	1.9848e+03
130	7.9478e-01	2.1708e-01	7.9045e-02	-3.6056e-02	9.5529e+02
131	1.7963e-01	3.1251e-01	9.0074e-03	-7.1914e-02	6.8436e+01
132	1.0680e-01	1.1956e-02	1.7331e-02	-2.2862e-02	2.7541e+03
133	1.6763e-01	6.9000e-04	3.5215e-02	1.8843e-01	2.2885e+03
134	5.2717e-02	6.8170e-02	-9.2788e-02	-5.7862e-02	2.2101e+03
135	1.2973e-02	2.6858e-01	1.5476e-02	9.0814e-02	5.9290e+02
136	8.4345e-02	2.8860e-01	-2.2160e-02	8.5007e-02	6.0476e+02
137	6.8277e-02	3.2113e-01	1.0713e-01	7.1891e-02	4.0486e+02
138	3.7575e-01	4.6535e-02	2.2816e-01	-6.4701e-03	2.4601e+03
139	2.3206e-01	2.2930e-01	7.9252e-02	-1.3057e-01	8.5503e+02
140	1.7910e-01	2.3953e-01	-1.2188e-02	1.0484e-02	8.2919e+02
141	1.9718e-01	2.1205e-02	-1.3204e-01	-2.7869e-02	2.3638e+03
142	1.1370e-02	3.1959e-01	-2.3879e-02	1.4803e-01	3.9740e+02
143	8.4186e-02	1.2332e-01	-6.4065e-02	-4.5667e-02	1.8248e+03
144	2.5667e-01	2.8086e-01	1.5657e-01	3.0100e-02	6.3166e+02
145	1.9238e-01	2.9587e-01	7.9527e-02	7.1239e-02	3.1703e+02
146	7.8576e-01	2.4470e-01	-9.4558e-02	-1.5339e-02	7.7450e+02
147	8.7190e-02	2.1921e-01	-1.1227e-01	7.2674e-03	1.0876e+03
148	1.1695e+00	2.4335e-01	3.7940e-01	-1.3468e-01	3.1860e+02
149	3.3474e-01	9.0725e-03	2.7176e-01	1.5301e-01	2.2273e+03
150	5.0312e-01	1.8125e-02	1.7112e-01	8.1060e-02	2.3760e+03
151	4.0425e-02	3.4531e-01	5.8458e-02	-2.0878e-02	0.0000e+00
152	2.0639e-01	1.0186e-01	-2.9371e-02	-1.3132e-01	2.1205e+03
153	4.1272e-01	1.2528e-02	1.7039e-01	1.0429e-01	2.2860e+03
154	2.5474e-01	6.9358e-02	3.0943e-02	-7.6633e-02	2.2321e+03
155	4.7796e-02	1.9200e-01	-1.2914e-01	-2.7731e-02	1.2155e+03
156	3.4043e-01	1.0449e-01	6.3131e-02	-3.2297e-01	1.6519e+03
157	1.3615e-01	3.1125e-01	6.4284e-02	-4.5560e-02	1.7043e+02
158	7.7321e-01	1.5923e-01	3.6681e-01	-1.1643e-01	1.5994e+03
159	1.9445e-01	2.8353e-03	4.6755e-02	-1.1018e-01	2.2976e+03
160	6.5226e-01	1.3863e-02	2.8428e-02	-2.0142e-03	2.6592e+03
161	7.4248e-01	1.9061e-01	2.1937e-01	-1.2599e-01	1.3545e+03
162	2.0903e-01	9.0893e-02	-1.0371e-01	-2.7891e-02	2.2325e+03
163	1.1978e-01	3.2793e-01	5.9285e-02	-3.1644e-02	0.0000e+00
164	2.8847e-01	6.2184e-02	1.8108e-01	-1.9431e-01	2.4062e+03
165	1.9423e-01	2.2382e-01	-1.0035e-01	-5.5413e-02	8.8858e+02
166	3.9137e-01	2.7581e-01	-1.8259e-01	-1.2177e-01	1.0038e+02
167	2.0631e-01	2.1033e-01	-5.6259e-02	-1.0989e-01	1.0599e+03
168	1.5374e-01	7.0645e-02	-2.0705e-02	-2.4547e-02	2.3125e+03
169	2.2125e-01	1.4889e-01	5.2426e-02	-9.5753e-02	1.6663e+03
170	4.9062e-02	1.2709e-01	-9.3621e-02	-4.3593e-02	1.8227e+03
171	3.1634e-01	5.5025e-02	2.4795e-01	-7.5959e-02	2.4131e+03
172	2.3123e-01	2.6263e-01	1.7343e-01	-5.8864e-02	5.4336e+02
173	1.3377e-01	1.6871e-01	-5.3925e-02	6.7325e-02	1.4772e+03
174	2.6103e-01	7.2462e-02	-2.0431e-02	-1.2436e-01	2.3080e+03
175	3.0073e-01	2.3515e-02	2.4668e-01	3.9256e-02	2.5627e+03
176	1.0071e+00	2.1375e-01	1.6241e-01	-1.5458e-01	6.3528e+02
177	2.1657e-02	3.1005e-01	-7.1105e-02	1.8340e-01	4.1662e+02
178	2.4468e-01	2.3126e-01	-3.1043e-02	-9.4070e-02	6.5917e+02
179	6.2485e-01	2.1085e-01	1.0929e-01	-3.9452e-01	7.7192e+02
180	1.1441e-01	3.3008e-01	1.2567e-01	-1.7222e-02	0.0000e+00
181	2.4382e-01	2.0119e-01	3.4041e-02	-1.1806e-01	1.1084e+03
182	9.5122e-02	2.3363e-01	-1.0306e-01	-4.6783e-03	1.0248e+03
183	1.1946e-01	2.0971e-01	-8.5070e-02	1.1688e-01	1.1372e+03
184	6.1040e-01	2.5645e-01	3.6506e-01	-2.1693e-01	1.8499e+02
185	1.4894e-01	3.1381e-01	7.2988e-02	-1.1790e-02	1.3180e+02
186	7.8301e-01	9.4635e-02	4.5137e-02	-2.0081e-02	2.0646e+03
187	1.9422e-01	2.4139e-01	-3.1186e-02	-1.0959e-02	8.0936e+02
188	2.2331e-01	2.7764e-01	1.4340e-01	1.1461e-02	3.6702e+02
189	8.2836e-01	1.7916e-01	4.1535e-01	1.2084e-02	1.3237e+03
190	4.2323e-01	1.8201e-03	2.4924e-01	-1.2066e-01	2.5016e+03
191	5.4723e-01	1.2891e-02	2.1842e-02	2.4153e-01	2.4191e+03
192	4.2383e-02	2.4148e-01	-7.2837e-03	3.1979e-02	9.3678e+02
193	5.6506e-03	1.8967e-01	1.5680e-01	5.8975e-02	1.1794e+03
194	4.6937e-02	2.9684e-01	-5.5215e-02	1.1348e-01	4.9643e+02
195	1.5717e-01	4.2693e-02	1.6565e-02	1.0774e-01	2.4050e+03
196	-2.1851e-03	6.3582e-02	2.1560e-01	1.2678e-01	2.0507e+03
197	2.1295e-02	3.4515e-01	1.5923e-02	1.2266e-01	8.2652e+01
198	6.8130e-02	1.7357e-01	5.9137e-02	4.3209e-02	1.3758e+03
199	2.3905e-01	1.0649e-01	-9.0568e-02	-1.5730e-01	2.0679e+03
200	5.5607e-02	1.6574e-01	-1.0012e-01	-2.3458e-02	1.4664e+03
201	3.1168e-02	2.4030e-01	-9.4504e-03	-3.3274e-02	8.5689e+02
202	1.8491e-01	1.2596e-01	-1.9421e-01	-5.0538e-02	1.8075e+03
203	8.6462e-02	1.0794e-01	1.1479e-02	1.9592e-02	1.9359e+03
204	1.3603e-01	1.1612e-01	-2.2496e-02	6.9279e-02	1.8795e+03
205	1.6535e-01	3.0519e-01	-2.6115e-02	2.9273e-03	1.4180e+02
206	1.8293e-01	2.7588e-01	8.3084e-02	7.6709e-02	4.6227e+02
207	1.4174e-01	9.6801e-02	-7.8720e-02	1.8352e-02	2.0587e+03
208	4.1858e-02	2.4820e-01	-1.9098e-02	3.2036e-02	7.8330e+02
209	1.0194e-01	1.3602e-01	-5.3966e-02	9.8017e-03	1.6895e+03
210	3.1484e-01	4.0003e-02	7.8970e-02	3.1244e-02	2.5539e+03
211	1.4988e-01	2.9446e-01	7.4518e-02	-6.1700e-02	3.4055e+02
212	8.0137e-02	2.7826e-01	-8.0080e-02	8.4162e-02	5.8032e+02
213	1.0593e-01	6.1842e-02	-1.4512e-01	2.5635e-02	2.2869e+03
214	2.5796e-02	2.8950e-01	-2.8793e-02	1.5822e-01	5.9774e+02
215	1.7839e-01	1.5973e-01	-7.9525e-02	7.7440e-02	1.5846e+03
216	6.9182e-01	2.4191e-01	1.6066e-01	1.9794e-02	7.7342e+02
217	8.9818e-02	1.5978e-01	-3.0866e-02	9.4570e-02	1.5023e+03
218	2.5845e-01	2.0006e-01	-2.7272e-01	-1.3427e-01	9.8209e+02
219	5.1996e-01	2.1773e-02	1.7780e-01	-1.2540e-01	2.3445e+03
220	2.3526e-01	3.2946e-02	-1.1142e-02	-5.5627e-02	2.4791e+03
221	5.2134e-01	1.1679e-01	1.2742e-01	1.9979e-01	1.7906e+03
222	5.2496e-02	2.7817e-01	-2.5048e-02	1.8341e-01	5.8287e+02
223	2.7341e-01	2.0951e-01	-3.3627e-02	-1.8692e-01	9.2788e+02
224	2.1060e-01	1.5178e-02	1.4318e-01	-5.5808e-02	2.5747e+03
225	5.8800e-01	1.9293e-01	-2.4633e-01	3.3515e-02	9.2681e+02
226	1.0390e-01	1.6376e-01	-8.5054e-02	-1.6056e-02	1.5597e+03
227	7.2806e-01	1.6973e-01	1.9823e-01	-1.3525e-01	1.4980e+03
228	4.7838e-01	4.5331e-02	3.4768e-01	2.4324e-02	2.3825e+03
229	1.8628e-01	3.0873e-01	6.3759e-02	-1.1448e-01	1.5429e+02
230	1.2893e-01	1.5336e-01	6.4813e-03	5.9891e-03	1.5954e+03
231	1.6584e-01	1.3392e-01	-2.3648e-02	-1.6167e-02	1.7255e+03
232	1.5341e-01	1.7464e-01	-7.7372e-02	5.0059e-02	1.4428e+03
233	3.6997e-01	1.7047e-02	3.0960e-01	-4.3939e-02	2.5131e+03
234	7.5049e-01	1.2048e-01	1.1197e-01	-9.2709e-02	1.8033e+03
235	4.1094e-01	7.5143e-02	2.9842e-01	1.5465e-01	2.0244e+03
236	3.6689e-01	2.3924e-01	-2.6658e-01	-1.4612e-01	6.7487e+02
237	2.6936e-01	4.4742e-02	1.1491e-01	3.9958e-02	2.4022e+03
238	1.3492e-02	1.6701e-02	-8.9909e-03	8.3539e-02	2.4960e+03
239	6.9040e-01	2.2019e-01	1.4293e-01	-1.5742e-01	9.3791e+02
240	2.7363e-01	1.7977e-01	-2.4987e-02	-1.9172e-01	1.2361e+03
241	3.7013e-01	2.5599e-01	-3.2528e-01	1.7871e-02	5.3040e+02
242	7.9044e-01	2.8724e-01	2.6926e-01	2.2014e-01	0.0000e+00
243	8.8533e-01	9.3164e-02	1.2342e-01	-1.9570e-01	2.1393e+03
244	1.4770e-01	2.4306e-01	-3.5183e-02	-5.1393e-03	9.1765e+02
245	8.6535e-02	2.4946e-01	3.5465e-02	3.3645e-03	7.6653e+02
246	1.4063e-01	3.1037e-01	9.4172e-02	-1.0235e-01	1.7252e+02
247	6.5608e-01	1.3841e-01	6.2594e-02	9.0482e-02	1.5801e+03
248	7.6957e-01	1.9317e-01	4.2288e-02	-3.3046e-01	1.2950e+03
249	1.7944e-01	2.7827e-02	-7.7172e-02	6.4550e-03	2.3214e+03
250	9.4563e-02	1.0177e-01	-2.8185e-02	1.0880e-02	2.0213e+03
251	2.8126e-01	2.2025e-01	-1.6678e-01	-4.4618e-02	8.0448e+02
252	8.6066e-01	1.5638e-01	2.7377e-01	-7.7445e-02	1.4309e+03
253	6.9227e-02	2.3937e-01	-4.6653e-03	1.0917e-01	8.2865e+02
254	2.8477e-01	2.4970e-01	-9.6248e-02	-6.8260e-02	6.3993e+02
255	4.7313e-01	2.0464e-01	-3.1020e-01	2.5059e-01	1.1177e+03
256	1.7857e-01	1.8575e-01	1.5777e-02	6.8999e-02	1.2645e+03
257	2.8728e-02	4.5658e-02	3.5940e-02	-2.0347e-01	2.4315e+03
258	1.6489e-01	5.9669e-02	3.1739e-02	5.2965e-02	2.2159e+03
259	2.4528e-02	2.6588e-01	2.3139e-02	6.9743e-02	7.5434e+02
260	1.5747e-01	2.1184e-01	-8.7563e-02	1.3214e-01	1.1009e+03
261	6.1583e-02	9.1516e-02	5.0377e-02	-9.0472e-03	2.0199e+03
262	2.4970e-01	2.8252e-01	4.4683e-02	7.0638e-02	3.8322e+02
263	2.1674e-01	2.2794e-01	-6.2181e-02	-1.7457e-01	7.8605e+02
264	6.5476e-02	1.9997e-01	-1.5644e-01	6.2444e-02	1.1946e+03
265	1.3968e-02	3.3558e-01	-1.3342e-02	7.9961e-02	2.1795e+02
266	2.1261e-02	3.3506e-01	4.2162e-02	4.1585e-02	7.2076e+01
267	3.7338e-02	1.4570e-01	-4.3205e-02	9.4926e-02	1.6319e+03
268	2.7182e-01	1.6258e-01	-6.5088e-02	-2.9350e-01	1.3720e+03
269	3.4643e-01	2.5493e-01	-2.9491e-01	-3.4999e-02	4.7216e+02
270	1.3247e-02	2.9776e-01	3.4236e-03	5.2812e-02	4.5797e+02
271	1.1948e-01	2.1463e-01	-7.6821e-02	7.1542e-02	1.1014e+03
272	1.6674e-01	2.4590e-01	2.3945e-02	4.4058e-03	8.5520e+02
273	2.2954e-02	2.2133e-01	-3.0674e-02	4.1862e-02	1.0484e+03
274	2.5919e-01	4.4873e-02	-1.7775e-02	-1.0765e-01	2.4875e+03
275	9.7183e-02	1.7013e-01	-5.0671e-02	1.4583e-01	1.4779e+03
276	3.2603e-01	1.8658e-02	1.4334e-01	2.7992e-02	2.5193e+03
277	4.0335e-01	5.3730e-02	2.3610e-01	-7.7287e-02	2.3077e+03
278	2.1738e-01	1.1372e-01	-1.2563e-01	-8.7133e-02	2.0366e+03
279	1.8396e-01	2.5400e-01	7.0963e-02	1.6613e-02	7.1066e+02
280	5.7541e-01	7.2848e-02	4.0437e-02	1.0351e-01	2.0673e+03
281	1.5944e-01	3.1620e-01	8.5960e-02	1.2111e-02	1.0488e+02
282	1.2698e-01	2.5220e-01	-9.1365e-02	5.5388e-02	7.8623e+02
283	5.1277e-02	3.4149e-01	-5.0239e-02	6.3692e-02	0.0000e+00
284	5.1935e-01	8.2498e-02	1.4350e-01	1.7760e-01	2.1162e+03
285	1.4432e-01	1.8508e-01	-1.2495e-01	1.1442e-01	1.3004e+03
286	1.4076e-01	1.5400e-01	-1.7186e-02	4.7091e-02	1.5994e+03
287	1.0100e-01	1.8879e-01	-1.0187e-01	7.4030e-02	1.3340e+03
288	8.8736e-01	1.4358e-01	3.7144e-01	7.3660e-03	1.7260e+03
289	4.1406e-02	1.2905e-01	-5.3573e-02	8.2995e-03	1.8288e+03
290	2.6479e-01	3.4499e-02	6.1059e-02	-3.8186e-03	2.5059e+03
291	1.1464e-01	1.0586e-01	-8.6116e-02	4.7950e-02	1.8965e+03
292	4.4507e-01	2.9304e-02	3.1472e-01	1.1479e-01	2.3157e+03
293	7.1368e-02	3.3622e-01	-5.1048e-02	-4.0001e-02	0.0000e+00
294	4.9178e-01	3.3693e-02	5.8413e-02	1.2295e-01	2.3673e+03
295	1.1491e-01	7.1582e-02	1.4100e-02	-8.9040e-02	2.2438e+03
296	1.6960e-01	3.1573e-01	6.9764e-02	-2.6617e-02	0.0000e+00
297	2.4395e-01	3.0620e-01	4.8656e-02	-3.3937e-02	0.0000e+00
298	3.0134e-01	3.8703e-02	1.1574e-01	-1.4726e-01	2.6533e+03
299	1.6817e-01	5.9491e-02	-2.5391e-02	2.0059e-02	2.2458e+03
300	9.2389e-02	6.4820e-02	-2.0217e-02	-2.8319e-02	2.3829e+03
301	3.4818e-01	3.5482e-02	1.6240e-01	-5.5706e-02	2.5710e+03
302	4.4566e-01	2.7833e-01	-8.6767e-02	-1.4321e-01	-5.3044e+01
303	1.3951e-01	8.8668e-02	3.2797e-02	2.1244e-02	2.1810e+03
304	9.2395e-01	1.0951e-01	7.2526e-02	-6.2319e-02	1.8464e+03
305	2.6674e-01	2.2471e-01	-7.2259e-02	-1.8602e-02	1.1416e+03
306	2.6438e-01	5.7113e-02	-1.4439e-03	-1.3298e-01	2.4525e+03
307	1.5585e+00	2.5894e-01	8.0161e-01	1.0168e-01	7.1372e+02
308	2.4970e-01	5.3915e-02	4.2805e-02	-2.3168e-03	2.4013e+03
309	6.6905e-02	2.7818e-01	6.7834e-03	1.3189e-01	5.3436e+02
310	6.3190e-01	1.0472e-01	2.0475e-01	1.1857e-01	1.7125e+03
311	1.7519e-01	8.5905e-02	-1.5628e-01	-3.2935e-02	2.1922e+03
312	5.7811e-01	1.9622e-02	4.4838e-02	4.9585e-02	2.3012e+03
313	2.2344e-03	2.2584e-01	9.3621e-02	7.0436e-02	9.9310e+02
314	4.0153e-02	3.4234e-01	-2.0266e-02	7.0673e-02	1.1257e+02
315	2.3495e-01	1.8489e-01	-1.1573e-01	-5.7087e-02	1.3097e+03
316	6.0241e-02	3.4313e-01	1.3558e-01	6.7680e-03	0.0000e+00
317	2.0864e-01	1.4005e-01	-1.7143e-01	-7.6732e-02	1.7563e+03
318	6.9603e-01	1.0520e-01	-5.3914e-02	4.0937e-02	1.8465e+03
319	3.3175e-01	1.6333e-01	-2.0030e-02	-1.0915e-01	1.2357e+03
320	9.0446e-03	1.5200e-01	-2.6093e-02	-2.7865e-02	1.7006e+03
321	8.2261e-02	3.0983e-01	3.7056e-02	-6.2545e-03	2.8307e+02
322	4.4275e-02	5.7927e-02	4.3861e-02	4.8845e-03	2.3387e+03
323	2.1898e-01	1.6856e-01	-6.3210e-02	-7.7280e-02	1.5253e+03
324	4.1096e-01	-2.6131e-03	3.3234e-01	-1.3711e-01	2.3094e+03
325	3.9384e-02	2.2849e-01	1.5004e-02	1.2801e-01	9.2873e+02
326	1.3765e-01	2.0418e-01	-1.3127e-01	9.6602e-02	1.2045e+03
327	2.3206e-01	2.0057e-01	-1.0170e-01	-9.1834e-02	1.2047e+03
328	1.8497e-01	1.5577e-01	-5.1428e-02	-2.3114e-02	1.5800e+03
329	2.2761e-02	1.9467e-01	-3.9061e-02	5.7608e-02	1.2825e+03
330	1.3652e-01	2.9526e-02	1.3861e-02	5.5569e-02	2.5403e+03
331	9.5611e-02	1.1864e-01	-8.5260e-03	4.7392e-02	1.8801e+03
332	1.0639e-01	8.2661e-02	4.4031e-02	-1.0201e-01	2.1661e+03
333	3.4633e-02	1.3966e-01	2.6480e-02	-1.5351e-02	1.6347e+03
334	1.0450e-02	2.0490e-01	-5.4158e-02	2.9535e-03	1.1610e+03
335	5.8148e-02	2.6870e-01	-3.6188e-03	7.9465e-02	5.8309e+02
336	1.2743e-01	6.5030e-02	5.3520e-02	-3.7969e-02	2.3117e+03
337	1.3174e-01	1.3412e-01	-1.9509e-01	6.4293e-02	1.7205e+03
338	7.8932e-01	1.6664e-01	4.1887e-01	2.4402e-02	1.4517e+03
339	1.0263e-01	1.7921e-01	-4.3554e-03	9.4957e-02	1.3938e+03
340	2.2113e-01	4.4621e-02	6.4246e-02	1.0136e-02	2.4797e+03
341	2.2073e-01	2.2710e-02	4.9315e-02	1.4676e-02	2.3868e+03
342	1.5724e+00	1.0544e-01	3.0941e-01	2.3519e-01	2.1743e+03
343	4.5806e-01	2.0260e-02	3.4271e-01	3.3607e-02	2.2673e+03
344	3.5908e-01	6.3982e-02	2.6015e-01	-7.5872e-02	2.3253e+03
345	2.7738e-01	1.4585e-01	-4.3423e-02	-2.8282e-01	1.4826e+03
346	1.2668e+00	2.4583e-01	4.8008e-01	-1.4435e-01	3.2762e+02
347	2.0320e-01	4.1168e-02	7.5215e-02	-4.1475e-02	2.3999e+03
348	1.0757e-01	3.0548e-01	1.3980e-01	2.6543e-03	3.4996e+02
349	1.6693e-01	1.9456e-01	-1.2319e-01	-2.2471e-02	1.2663e+03
350	1.0940e-01	4.4280e-02	-7.5685e-02	-9.5252e-02	2.4918e+03
351	2.0367e-01	5.3653e-02	8.4821e-03	-3.9536e-02	2.4072e+03
352	1.4294e+00	2.8504e-01	5.8474e-01	-1.7798e-01	2.4377e+02
353	2.2483e-01	5.4217e-02	-2.6226e-02	-7.1984e-03	2.2782e+03
354	1.7992e-01	1.7394e-01	-2.4519e-02	-5.0491e-03	1.4491e+03
355	1.5200e-01	2.4612e-01	3.7724e-03	1.3227e-03	8.7076e+02
356	2.5941e-01	1.9861e-01	8.4666e-02	-2.2236e-01	1.1982e+03
357	1.1670e-01	1.6210e-01	-1.0737e-01	8.5077e-02	1.5123e+03
358	2.1951e-01	6.2507e-04	1.5771e-01	-1.9582e-01	2.1309e+03
359	8.8006e-02	1.4385e-01	-4.7654e-02	-5.7355e-02	1.6955e+03
360	1.4124e-01	7.0768e-02	-1.1603e-03	2.8824e-02	2.2588e+03
361	2.2432e-01	2.9912e-01	8.7009e-03	-1.5971e-02	3.6539e+02
362	7.1203e-02	1.5973e-01	2.3519e-03	-3.4181e-02	1.5229e+03
363	3.6839e-01	3.9136e-02	2.8210e-01	7.9288e-02	2.3840e+03
364	2.1125e-01	7.9826e-02	-1.0094e-03	4.2633e-03	2.3046e+03
365	5.0862e-01	9.0640e-02	2.7443e-01	1.2194e-01	2.0730e+03
366	4.1084e-01	1.6317e-02	2.5091e-01	8.0620e-02	2.3462e+03
367	2.7198e-01	2.8904e-01	-5.0329e-02	9.1519e-02	2.6386e+02
368	7.6896e-02	3.3282e-01	3.1650e-02	-1.6544e-02	7.3636e+01
369	7.1106e-02	1.1145e-01	-4.3394e-02	1.5709e-03	1.9256e+03
370	3.8826e-01	5.0964e-02	2.4482e-01	-6.6409e-02	2.3128e+03
371	1.8776e-01	1.0431e-01	-6.0793e-02	-4.9987e-02	2.1276e+03
372	6.7990e-01	2.6289e-01	-4.8537e-02	1.2515e-01	3.1378e+02
373	7.6538e-02	2.0549e-01	-7.3457e-02	-6.6084e-03	1.1722e+03
374	1.1061e-01	1.1978e-01	-5.5597e-02	4.4814e-05	1.9055e+03
375	4.7502e-01	9.2553e-02	2.1676e-01	4.6106e-02	1.8261e+03
376	7.0867e-01	2.0990e-01	1.6902e-01	-1.9172e-01	9.4600e+02
377	1.6520e-01	1.3288e-01	-1.5989e-01	-5.4192e-02	1.7212e+03
378	1.3744e-01	2.8411e-01	5.6519e-02	2.6915e-02	4.0637e+02
379	2.7057e-01	2.8332e-01	-2.5200e-03	1.2204e-01	5.5811e+02
380	2.2787e-01	1.0709e-01	-4.3794e-02	-7.6241e-02	2.0174e+03
381	7.6944e-01	1.6307e-01	3.4765e-01	-1.0106e-01	1.5600e+03
382	8.6901e-01	6.7392e-02	-5.6439e-02	-3.3630e-02	2.1898e+03
383	3.4532e-01	1.1242e-02	2.9265e-01	-1.4422e-01	2.6060e+03
384	2.2670e-01	3.0058e-01	1.1225e-01	1.0574e-02	2.6276e+02
385	4.4043e-02	1.5152e-02	2.2761e-02	-6.1347e-02	2.3670e+03
386	-1.4573e-03	3.1908e-02	2.1789e-02	-2.2755e-02	2.3974e+03
387	2.0648e-01	1.7506e-01	6.4406e-02	-7.1207e-02	1.4974e+03
388	1.0839e-01	1.4670e-01	-7.7943e-03	3.8115e-02	1.6639e+03
389	1.6656e-01	2.2201e-01	-4.1430e-02	9.6647e-02	1.1058e+03
390	5.0450e-02	1.7966e-01	1.2520e-02	7.1755e-02	1.2632e+03
391	2.4757e-01	2.9051e-01	2.5532e-02	-3.9059e-02	2.0879e+01
392	4.0082e-02	1.5495e-01	-5.4993e-02	-1.3472e-02	1.5982e+03
393	7.7144e-02	3.2192e-01	5.6285e-02	4.0083e-03	1.9107e+02
394	8.5587e-02	2.8027e-01	1.5932e-02	1.1283e-03	6.0111e+02
395	6.8216e-01	2.2455e-01	1.2997e-01	-3.2310e-02	6.0622e+02
396	1.3768e-02	2.1578e-01	5.4972e-02	1.8452e-01	9.9309e+02
397	1.2593e-02	1.4966e-01	-4.9380e-02	3.2674e-02	1.6890e+03
398	6.9924e-02	6.0444e-02	5.5945e-03	9.5112e-03	2.2501e+03
399	-4.8037e-04	7.6507e-02	1.0615e-01	8.4095e-02	2.0569e+03
400	3.7860e-02	9.7663e-02	5.5320e-03	-2.8089e-02	1.9715e+03
401	6.3120e-01	1.8068e-02	4.9068e-02	7.3412e-02	2.5270e+03
402	4.2701e-02	1.6415e-01	7.9854e-02	1.0574e-02	1.4603e+03
403	2.7222e-02	1.6951e-01	4.3803e-02	1.2061e-01	1.4556e+03
404	1.9200e-01	5.6126e-02	8.0488e-03	-2.8619e-02	2.3297e+03
405	7.1417e-02	2.9521e-01	-3.6318e-02	9.6877e-02	5.0376e+02
406	5.5713e-02	8.5070e-02	-1.0135e-01	-5.6659e-02	2.1083e+03
407	2.3486e-01	2.5862e-03	1.4818e-01	3.0330e-02	2.4570e+03
408	5.1197e-01	1.8429e-01	-1.7840e-01	1.5486e-01	1.0088e+03
409	2.0072e-01	2.8468e-01	1.4628e-01	-5.7079e-02	4.4280e+02
410	2.5495e-01	1.9910e-02	5.6694e-02	2.4319e-02	2.3970e+03
411	4.7179e-01	2.5921e-01	3.6876e-03	6.2387e-02	4.5671e+02
412	6.6940e-02	1.5359e-01	9.9594e-03	-2.6269e-05	1.5995e+03
413	3.0770e-02	6.5353e-02	-3.0309e-02	-1.2663e-01	2.2370e+03
414	1.0523e-01	3.1121e-01	6.8761e-02	7.8257e-02	3.8747e+02
415	2.0586e-01	2.4079e-01	4.8364e-02	-9.2231e-02	8.1161e+02
416	1.8562e-01	2.1061e-01	-8.2181e-02	-5.7584e-02	1.0457e+03
417	1.1807e-01	5.4292e-02	4.0775e-02	-6.2416e-03	2.3323e+03
418	1.9454e-01	1.5832e-01	-9.0521e-02	-6.4836e-02	1.5451e+03
419	2.1541e-01	1.8879e-01	4.1917e-02	-7.7120e-02	1.2452e+03
420	1.3189e-01	1.3467e-01	-4.0021e-02	4.4204e-02	1.7111e+03
421	1.2034e-02	2.9277e-01	-9.8896e-02	1.6393e-01	5.2711e+02
422	6.0806e-01	2.5538e-01	3.1034e-01	-2.1652e-01	1.6400e+02
423	1.0268e-01	3.3087e-01	8.1145e-02	1.1285e-01	0.0000e+00
424	1.2685e-01	7.6682e-02	-3.4431e-02	-3.8917e-02	2.1459e+03
425	2.1177e-01	2.7252e-02	-1.4854e-02	-6.6595e-03	2.4212e+03
426	2.7147e-01	1.2437e-01	-4.5352e-02	-2.6409e-01	1.8394e+03
427	8.3753e-02	3.0391e-01	3.1457e-02	-5.4149e-02	3.9452e+02
428	1.2732e-02	1.1154e-01	-5.2106e-03	1.6801e-03	1.8332e+03
429	1.6122e-01	2.3871e-01	2.5483e-03	1.2611e-01	8.1157e+02
430	8.7813e-01	8.4002e-02	2.0442e-02	-2.0213e-01	2.1867e+03
431	7.1810e-02	1.6499e-01	-9.2408e-02	6.2200e-02	1.4452e+03
432	1.1915e-01	3.2669e-01	1.7882e-02	-7.4996e-02	0.0000e+00
433	1.2599e-01	2.3536e-01	-9.0385e-02	6.2799e-02	9.3911e+02
434	2.1976e-01	8.7775e-02	-3.8554e-02	3.6588e-02	2.1949e+03
435	4.0070e-01	1.2482e-01	6.7282e-02	3.0431e-02	1.5979e+03
436	7.7461e-01	5.5995e-02	-3.6651e-02	-4.9181e-03	2.3276e+03
437	1.5457e-01	1.4155e-01	-1.2766e-01	7.2983e-02	1.7482e+03
438	2.3650e-01	2.1580e-01	-1.2378e-01	-1.9237e-01	1.0379e+03
439	1.3584e-01	2.4511e-01	1.0492e-02	8.9147e-02	8.3001e+02
440	4.3139e-01	3.1735e-02	2.7291e-01	1.0843e-01	2.3195e+03
441	2.3199e-01	2.2118e-02	5.4847e-02	-5.0368e-02	2.4259e+03
442	3.2321e-01	2.2480e-02	2.4853e-01	5.0209e-03	2.5473e+03
443	1.9177e-01	8.6308e-02	-6.4679e-02	-5.8943e-02	2.1771e+03
444	2.9597e-01	3.1976e-03	1.5170e-01	-1.9329e-01	2.5690e+03
445	8.5123e-01	2.1157e-01	-6.5107e-02	1.2718e-01	8.1955e+02
446	2.2135e-01	1.0211e-01	2.2690e-02	-1.5562e-01	2.1680e+03
447	1.1301e-02	1.7602e-01	-5.8392e-02	1.1053e-02	1.3863e+03
448	1.0392e-02	-4.6808e-03	1.0218e-01	4.9735e-02	2.5841e+03
449	3.3842e-02	6.5015e-03	-4.3275e-02	-1.2494e-01	2.5446e+03
450	3.0749e-03	2.4131e-01	5.4319e-02	7.1229e-02	7.8926e+02
451	1.2346e-03	3.3706e-01	3.8346e-03	1.4165e-01	0.0000e+00
452	1.8555e-01	-2.9911e-03	1.3394e-01	5.4027e-02	2.4037e+03
453	3.1392e-02	8.6767e-02	2.3757e-02	-7.7796e-02	2.1579e+03
454	1.3515e-01	7.8522e-02	-6.7616e-02	2.2682e-02	2.1524e+03
455	7.9143e-02	1.4803e-01	7.3642e-02	2.2459e-02	1.6282e+03
456	2.0173e-01	3.4057e-02	-6.7518e-02	-2.2743e-02	2.3850e+03
457	3.8506e-02	5.3915e-02	-4.8105e-03	-3.2083e-02	2.2479e+03
458	1.3452e-02	6.2267e-02	2.1759e-02	-2.3349e-02	2.2068e+03
459	6.3126e-02	8.5367e-03	-9.7278e-02	1.4486e-02	2.4774e+03
460	1.4335e-01	1.7136e-01	-1.0758e-01	1.0412e-01	1.4672e+03
461	6.1810e-02	3.2487e-01	3.0090e-02	5.7722e-02	2.8146e+02
462	4.7847e-02	3.2171e-01	1.3109e-02	1.0999e-01	3.3179e+02
463	1.8323e-02	1.9230e-01	5.9546e-02	6.5417e-02	1.3510e+03
464	8.9416e-02	5.0863e-02	-7.0309e-02	-5.0851e-02	2.3558e+03
465	6.2869e-03	2.8762e-01	7.7498e-02	3.2478e-02	5.4878e+02
466	8.8324e-02	2.0109e-01	-1.3228e-01	6.4341e-02	1.2347e+03
467	1.8933e-01	2.0714e-01	-1.1549e-02	1.5797e-02	1.1623e+03
468	1.2663e-02	6.9407e-02	6.9393e-02	-7.6250e-02	2.0890e+03
469	2.8181e-01	2.5741e-01	-7.7959e-02	-5.6725e-02	4.4796e+02
470	4.5829e-02	8.5079e-02	1.1897e-02	1.0281e-01	2.1686e+03
471	2.4026e-01	1.4567e-02	-7.5817e-03	3.1310e-02	2.5800e+03
472	2.7147e-02	2.7719e-01	1.0266e-02	7.5903e-02	6.2947e+02
473	1.1811e-01	2.2370e-01	-4.1176e-02	4.6242e-02	1.0472e+03
474	2.2263e-02	8.5659e-02	1.6184e-02	1.1536e-02	2.0959e+03
475	5.3166e-03	2.7855e-01	-4.5181e-02	4.6503e-02	5.8628e+02
476	3.0238e-01	6.1397e-02	-3.5523e-02	-1.9662e-01	2.4116e+03
477	2.2579e-01	1.8332e-01	5.3275e-02	-4.1604e-02	1.4252e+03
478	6.7862e-02	3.0979e-01	8.7368e-02	9.1707e-02	3.4180e+02
479	1.6798e-01	1.6734e-01	3.9327e-02	4.4865e-02	1.5093e+03
480	2.1036e-01	2.8935e-01	7.8386e-02	-5.7119e-02	1.8563e+02
481	4.0344e-01	4.2073e-02	3.9054e-01	-7.6020e-04	2.3037e+03
482	3.6348e-01	7.1669e-02	3.4801e-01	-2.2488e-02	2.1923e+03
483	3.4645e-02	8.2983e-02	-5.4807e-02	1.4656e-02	2.1714e+03
484	1.3415e-01	2.7098e-01	-1.6006e-02	-8.6431e-02	5.6892e+02
485	6.4317e-02	6.7429e-02	7.1440e-02	3.6520e-02	2.2295e+03
486	2.9370e-01	2.9201e-01	-1.9680e-01	5.8034e-02	3.2498e+02
487	1.0448e-01	2.8893e-01	7.9713e-03	2.9024e-02	4.9422e+02
488	1.5366e-01	2.5915e-01	4.2808e-02	7.0344e-03	6.1927e+02
489	1.2363e-01	2.3236e-02	1.5466e-01	1.4038e-01	2.1957e+03
490	3.5782e-02	1.7287e-01	-3.4778e-02	-3.1037e-02	1.4797e+03
491	3.2075e-02	2.5483e-01	-3.2330e-02	8.5548e-02	8.0923e+02
492	1.7771e-02	3.4678e-01	-6.7036e-02	2.3149e-02	0.0000e+00
493	1.4709e-01	2.6046e-01	4.7114e-02	9.3937e-02	6.8432e+02
494	2.0204e-01	1.6049e-02	1.4623e-01	1.5946e-03	2.3684e+03
495	1.3217e-01	1.9983e-01	-1.0145e-01	5.0989e-02	1.2626e+03
496	6.6274e-01	1.0202e-01	-1.1384e-02	1.4493e-01	1.8773e+03
497	9.6070e-02	1.5453e-01	-1.9222e-02	1.1988e-02	1.5297e+03
498	3.3316e-02	3.1384e-01	-2.8967e-02	3.4226e-02	3.7220e+02
499	1.0758e-01	2.5906e-02	1.5480e-01	-1.6305e-01	2.5028e+03
500	3.4639e-01	6.7993e-02	2.5347e-01	-1.1747e-01	2.4430e+03