variables="k","x","y","vx","vy","pressure"
zone i=8064 j=1
0	1.8325e-01	1.9952e-01	7.7794e-02	-1.9827e-02	1.2546e+03
1	1.1487e-01	2.7612e-01	3.0216e-02	-2.5918e-02	5.4913e+02
2	5.3854e-02	2.2162e-01	-3.1332e-02	-1.7886e-02	1.0771e+03
3	2.2665e-01	8.1074e-05	8.6103e-02	-1.6525e-01	2.2540e+03
4	2.8900e-02	2.8475e-01	-3.6207e-02	-7.0310e-02	5.5822e+02
5	4.8121e-01	5.3235e-02	3.5479e-01	7.1586e-02	1.9231e+03
6	2.6035e-01	1.9079e-01	-2.2614e-02	-1.0174e-01	1.0906e+03
7	1.6409e-01	1.4364e-01	-5.9796e-02	7.1890e-03	1.7661e+03
8	-2.2177e-03	5.1482e-02	3.4895e-02	-2.8358e-02	2.5869e+03
9	3.5794e-01	1.2176e-02	2.3859e-01	-1.0077e-01	2.3814e+03
10	9.6967e-02	2.3705e-01	-1.2660e-02	6.3610e-03	9.7554e+02
11	1.8779e-01	2.4686e-01	1.4719e-01	-1.4380e-01	7.4795e+02
12	5.2650e-01	1.7417e-01	1.3551e-02	1.7184e-01	9.8441e+02
13	5.1809e-01	1.6428e-01	1.7372e-03	1.4447e-01	1.0548e+03
14	4.3775e-01	4.5438e-02	3.8096e-01	8.2725e-02	2.1825e+03
15	1.1687e-01	2.9293e-01	1.9404e-01	-6.2209e-02	4.0168e+02
16	2.0148e-01	2.7320e-01	1.3917e-01	5.8293e-02	5.6980e+02
17	7.5396e-01	1.3103e-01	9.0049e-02	-8.0875e-02	1.4690e+03
18	7.9420e-01	1.2261e-01	2.5028e-01	-1.8680e-01	1.8249e+03
19	5.9801e-02	2.4529e-01	6.8273e-02	-9.4574e-02	8.8018e+02
20	1.1946e-01	2.6670e-01	1.0469e-01	-5.2066e-02	5.9947e+02
21	5.2191e-02	3.1628e-01	1.5746e-01	-1.2686e-01	2.9411e+02
22	9.6271e-02	8.1454e-02	-1.3562e-03	-1.8188e-02	2.2431e+03
23	1.8091e-01	1.0298e-01	-8.3359e-02	1.2450e-02	2.1445e+03
24	6.3020e-01	1.2043e-01	1.3838e-01	1.0638e-01	1.3580e+03
25	-9.4600e-04	1.9212e-01	9.5130e-02	-9.0448e-02	1.3913e+03
26	7.5731e-02	9.8737e-02	-3.7691e-02	4.8980e-02	2.2197e+03
27	1.4629e-01	9.7794e-02	4.7200e-02	3.4721e-02	2.0918e+03
28	2.7838e-01	9.2329e-02	1.5781e-01	-7.1046e-02	2.3607e+03
29	2.6469e-01	1.8181e-01	2.1107e-01	-8.9990e-02	1.2004e+03
30	-1.2533e-03	1.2327e-01	3.7222e-01	-1.3107e-01	1.8752e+03
31	1.0091e-01	8.0026e-02	7.4574e-02	-6.7492e-02	2.2445e+03
32	2.3237e-01	1.4870e-01	5.8630e-02	-1.0861e-01	1.6834e+03
33	6.0155e-01	1.4775e-01	2.0871e-02	1.9926e-01	1.2758e+03
34	8.6490e-01	7.0887e-02	2.9822e-02	-1.0315e-01	2.0754e+03
35	8.3350e-01	2.3709e-01	5.4952e-03	-1.8316e-01	3.0881e+02
36	2.7616e-01	3.0469e-01	1.6625e-01	-8.0304e-02	0.0000e+00
37	8.4689e-01	2.4302e-01	1.4762e-01	-2.1905e-01	5.7695e+02
38	6.9362e-01	2.1752e-01	6.3039e-02	-1.1509e-01	7.0789e+02
39	7.6207e-01	1.0781e-01	1.9778e-01	-1.2145e-01	1.7002e+03
40	1.7144e-01	2.1257e-01	4.3882e-02	-1.0600e-01	1.1610e+03
41	1.6008e-01	6.3607e-02	6.1073e-02	1.7710e-02	2.3821e+03
42	1.6459e-01	4.1768e-02	1.8279e-01	7.3655e-02	2.4310e+03
43	6.9474e-01	1.1606e-01	2.0771e-01	3.6370e-02	1.4881e+03
44	1.7059e-01	2.1901e-01	1.4594e-01	-8.4024e-02	1.0046e+03
45	8.1402e-01	9.7151e-02	1.9025e-01	-1.6967e-01	1.7797e+03
46	1.1327e-01	2.9545e-01	9.7035e-02	-1.3894e-01	3.7482e+02
47	1.8020e-01	1.7329e-01	1.4154e-03	-3.7656e-02	1.5199e+03
48	5.6780e-02	3.0498e-01	8.0197e-02	-2.0677e-01	3.9293e+02
49	1.5695e-01	2.4513e-01	1.2340e-01	-9.5643e-02	7.4870e+02
50	7.2466e-01	1.2386e-01	2.0488e-01	-6.7673e-02	1.7045e+03
51	9.7939e-02	2.7296e-01	2.0343e-02	-4.0243e-02	5.9724e+02
52	2.0624e-01	6.3191e-02	-3.1778e-02	-4.0818e-02	2.5076e+03
53	5.7829e-03	2.5026e-01	-1.4760e-02	-6.9456e-02	9.2135e+02
54	2.0883e-01	1.7863e-01	7.1581e-02	-3.7809e-02	1.5803e+03
55	4.3394e-01	2.3913e-01	-1.3921e-01	-8.4466e-02	4.7355e+02
56	4.8504e-01	8.0882e-02	2.0918e-01	1.7215e-01	1.7636e+03
57	1.9828e-01	2.1345e-01	2.0988e-02	-7.0832e-03	1.1295e+03
58	8.1937e-01	1.3946e-01	4.0275e-01	-2.8067e-02	1.5718e+03
59	3.1006e-01	2.9681e-01	2.3227e-01	-6.4814e-02	2.0671e+01
60	2.6875e-02	2.4723e-01	5.4020e-02	-4.2182e-02	8.6601e+02
61	8.7089e-01	1.9943e-01	9.6806e-02	3.7040e-02	1.0198e+03
62	8.4531e-01	6.2836e-02	2.6879e-02	-3.7105e-02	2.2458e+03
63	2.6437e-01	1.3707e-01	1.1020e-02	-1.1758e-01	1.7830e+03
64	1.3186e-01	-6.9842e-03	-4.6624e-02	1.3608e-02	2.5056e+03
65	-3.9276e-03	7.6365e-03	-1.1041e-01	-1.0151e-01	2.6262e+03
66	5.0985e-02	-5.0249e-03	-1.2839e-01	1.6899e-01	2.5204e+03
67	1.4091e-01	1.9738e-01	1.7755e-02	-9.9729e-02	1.2366e+03
68	3.4096e-02	1.0205e-01	4.8692e-02	-5.5159e-02	2.0515e+03
69	6.6265e-02	1.7857e-01	-4.2408e-02	-3.9406e-02	1.4790e+03
70	1.0017e-02	1.8327e-01	-7.5810e-02	1.1404e-02	1.4246e+03
71	4.1240e-01	6.5299e-04	2.3460e-01	2.4297e-02	2.4801e+03
72	5.2306e-01	1.7188e-01	4.4542e-02	1.7880e-01	9.5422e+02
73	1.5614e-01	3.8822e-03	1.5162e-01	-2.7375e-01	2.5735e+03
74	2.3434e-01	1.4843e-01	1.1222e-01	-1.1814e-01	1.6959e+03
75	8.2704e-01	1.7186e-01	1.9998e-01	-2.0826e-01	1.3329e+03
76	2.5662e-01	1.1295e-02	2.2170e-01	-1.3840e-02	2.5121e+03
77	2.0224e-01	2.4011e-01	1.2360e-01	-1.7164e-02	8.1408e+02
78	1.7584e-01	2.6695e-01	1.7042e-01	-1.0291e-01	5.1914e+02
79	1.1675e-01	1.8132e-01	3.1742e-02	-2.1931e-02	1.4899e+03
80	2.0083e-01	2.8259e-01	2.7937e-01	-4.8530e-02	2.5269e+02
81	4.7374e-01	1.4285e-01	-2.7357e-02	1.7170e-01	1.3490e+03
82	2.4823e-01	7.5173e-02	1.4335e-02	-1.9922e-01	2.5265e+03
83	8.0248e-01	9.3635e-02	7.1431e-02	8.8492e-02	1.7674e+03
84	1.1424e-01	2.4911e-01	3.8290e-02	9.5126e-03	8.0926e+02
85	9.1507e-01	2.3077e-01	2.6603e-02	2.6256e-02	4.4670e+02
86	1.3253e-01	2.0881e-01	2.0293e-02	1.4016e-02	1.2122e+03
87	1.2473e-01	1.9721e-01	5.7416e-02	2.2755e-02	1.1930e+03
88	2.1536e-01	1.8780e-01	1.4289e-02	-1.3036e-01	1.3586e+03
89	6.1173e-01	3.9389e-02	1.3543e-01	-4.5110e-02	2.0596e+03
90	7.0841e-01	2.6750e-01	1.0440e-01	6.3213e-02	0.0000e+00
91	9.6257e-02	3.1584e-01	1.5889e-01	-1.3923e-01	1.2965e+02
92	2.5310e-01	1.7851e-01	2.3972e-01	-1.3620e-01	1.2863e+03
93	1.6742e-01	1.9907e-01	1.0109e-02	4.1282e-02	1.1458e+03
94	7.5187e-01	1.0006e-01	9.8785e-02	-8.0907e-02	1.5834e+03
95	5.1752e-02	1.2659e-01	-5.1046e-03	-9.2994e-02	1.9719e+03
96	9.6156e-01	1.2875e-01	2.1092e-01	-6.2852e-02	1.4046e+03
97	2.3514e-01	1.3800e-01	7.2314e-03	-1.0070e-01	1.7970e+03
98	5.1275e-01	2.1295e-01	-2.5276e-01	1.3588e-01	5.3238e+02
99	7.9120e-01	2.3583e-01	-1.1320e-01	-6.3299e-02	2.3054e+02
100	2.4328e-01	3.0894e-01	1.6821e-01	6.0066e-03	2.0331e+01
101	1.4379e-01	2.3675e-01	9.4107e-02	-7.2883e-02	8.8462e+02
102	8.1374e-01	2.2729e-01	3.5883e-02	-1.2988e-01	6.6448e+02
103	1.0871e+00	1.8802e-01	2.0842e-01	-2.9475e-02	5.9195e+02
104	3.8611e-02	2.9905e-01	1.6920e-02	-9.7366e-02	5.4397e+02
105	3.8525e-01	1.5210e-02	3.2646e-01	-5.2128e-02	2.3802e+03
106	2.4458e-01	9.2953e-02	1.0967e-01	-1.0065e-01	2.3395e+03
107	3.9889e-01	7.6397e-02	4.1267e-01	-3.0126e-02	2.1160e+03
108	2.1679e-01	2.1752e-01	-6.4498e-02	-1.2279e-01	9.5868e+02
109	7.3957e-01	1.5913e-01	1.8413e-01	-1.1263e-01	1.2443e+03
110	9.9357e-01	1.9156e-01	1.8442e-01	-1.7457e-01	7.3295e+02
111	8.4919e-01	1.9191e-01	7.8267e-02	-1.8502e-01	9.6093e+02
112	1.9507e-01	1.3119e-01	-1.0327e-01	4.8111e-02	1.8469e+03
113	1.0958e-01	1.8539e-01	-2.3244e-02	5.5998e-02	1.4231e+03
114	1.3262e-01	2.7968e-01	1.3225e-01	-7.4357e-02	5.1943e+02
115	3.0907e+00	9.1815e-03	-9.9692e-02	1.3642e-02	1.2456e+03
116	7.1069e-01	2.6722e-01	5.6227e-02	-1.8668e-02	0.0000e+00
117	8.4360e-01	7.5273e-02	5.3569e-02	3.2756e-02	2.2294e+03
118	4.2271e-01	1.6989e-01	-1.3125e-01	2.3115e-02	1.0014e+03
119	1.6533e-01	2.7704e-01	1.8976e-01	-8.8795e-02	3.2324e+02
120	8.9253e-01	2.4654e-01	5.0914e-02	-8.3855e-02	1.1550e+02
121	2.2856e-01	2.3210e-01	1.0125e-01	-1.1794e-01	7.8539e+02
122	1.3711e-01	2.3932e-01	9.3627e-02	1.1751e-02	8.6957e+02
123	3.8498e-01	2.2840e-01	-4.6079e-01	-8.6662e-02	4.3350e+02
124	1.6288e-01	1.0735e-01	5.9951e-02	-2.9887e-03	2.0861e+03
125	6.3193e-01	3.8050e-02	-7.1174e-02	-7.1360e-02	2.2857e+03
126	1.2648e-01	3.0593e-01	2.1014e-01	-9.1772e-02	2.1385e+02
127	5.4430e-01	2.4766e-01	2.0959e-02	2.0059e-01	2.8783e+02
128	2.0395e-01	1.6919e-01	-9.1100e-03	-1.1618e-01	1.6473e+03
129	-1.6175e-03	9.8641e-02	1.0912e-01	-4.4594e-02	2.1393e+03
130	8.0105e-01	2.1449e-01	-4.3859e-02	-4.5990e-02	7.3317e+02
131	2.0496e-01	3.0502e-01	2.3628e-01	-2.0825e-02	5.0160e+01
132	1.0324e-01	1.8125e-02	3.1272e-02	8.0576e-02	2.6332e+03
133	1.8918e-01	1.5570e-03	2.1984e-01	2.9480e-02	2.2383e+03
134	3.5138e-02	6.1287e-02	-1.1505e-01	-4.2363e-02	2.3728e+03
135	1.3593e-02	2.5589e-01	1.5861e-03	-1.5171e-01	8.7155e+02
136	8.3346e-02	2.8238e-01	5.2977e-03	-5.2209e-02	5.1559e+02
137	9.5348e-02	3.1120e-01	1.6346e-01	-1.0360e-01	2.0253e+02
138	4.3687e-01	6.1568e-02	3.6293e-01	1.6181e-01	2.0042e+03
139	2.2644e-01	2.0965e-01	-4.5915e-02	-1.5729e-02	1.0885e+03
140	1.8503e-01	2.2971e-01	-2.7144e-03	-5.5867e-02	8.0163e+02
141	1.9513e-01	1.2804e-02	2.1350e-02	-5.4131e-03	2.5215e+03
142	2.5321e-03	3.3204e-01	1.2479e-02	1.4478e-02	0.0000e+00
143	7.3857e-02	1.1740e-01	9.0339e-04	-3.3441e-02	2.0141e+03
144	2.7319e-01	2.7096e-01	6.1895e-02	-2.4826e-02	3.2347e+02
145	2.2343e-01	2.9425e-01	2.0881e-01	4.9741e-03	1.8631e+02
146	7.6406e-01	2.3820e-01	-1.8224e-02	-3.2797e-02	4.6579e+02
147	7.8425e-02	2.2207e-01	2.2813e-02	-4.5951e-02	1.0467e+03
148	1.2530e+00	2.1920e-01	4.1783e-01	-9.5179e-02	3.1994e+02
149	3.9813e-01	1.9869e-02	4.0656e-01	5.9491e-02	2.2615e+03
150	5.5356e-01	1.1309e-02	3.0402e-01	6.9584e-02	2.4686e+03
151	6.9095e-02	3.2860e-01	1.9407e-01	-1.8003e-01	0.0000e+00
152	2.1635e-01	8.5035e-02	1.7343e-01	-1.1667e-01	2.4087e+03
153	4.5488e-01	1.6018e-02	3.7882e-01	-1.8295e-01	2.4841e+03
154	2.6540e-01	4.8361e-02	1.2621e-01	-1.8935e-01	2.6195e+03
155	3.1112e-02	1.7850e-01	-1.7262e-02	-9.4169e-02	1.4861e+03
156	3.9743e-01	6.4700e-02	4.0136e-01	-2.6981e-03	2.1975e+03
157	1.6503e-01	2.9751e-01	2.0585e-01	-1.1283e-01	2.0134e+02
158	8.5746e-01	1.4219e-01	3.7385e-01	-1.9149e-02	1.4789e+03
159	2.2152e-01	8.7020e-03	1.8467e-01	3.3140e-02	2.4865e+03
160	6.4684e-01	1.7152e-02	-4.4151e-02	1.1905e-02	2.5269e+03
161	7.9334e-01	1.6590e-01	3.9545e-01	-2.0481e-01	1.2249e+03
162	1.9776e-01	8.4138e-02	-1.5118e-02	-8.0754e-02	2.3891e+03
163	1.4962e-01	3.0976e-01	2.4509e-01	-7.6725e-02	9.5530e+01
164	3.1251e-01	3.7968e-02	2.2759e-01	-1.9363e-01	2.5687e+03
165	1.8147e-01	2.1747e-01	-1.6627e-02	-2.4070e-02	1.0239e+03
166	3.5124e-01	2.5819e-01	-1.4382e-01	-1.4837e-01	3.7006e+02
167	2.0646e-01	1.9206e-01	-2.7240e-02	-1.1845e-01	1.3440e+03
168	1.5276e-01	6.1894e-02	4.1445e-02	-4.3115e-02	2.3813e+03
169	2.2101e-01	1.3740e-01	-5.9493e-02	-7.0147e-02	1.7905e+03
170	3.7652e-02	1.1752e-01	-6.0179e-03	-5.9632e-02	2.0143e+03
171	3.7807e-01	5.8627e-02	3.4505e-01	5.7421e-02	2.3192e+03
172	2.7278e-01	2.5134e-01	2.2392e-01	-1.2090e-01	7.9008e+02
173	1.2688e-01	1.6599e-01	2.4402e-02	-3.1932e-02	1.5469e+03
174	2.8071e-01	5.1105e-02	1.8907e-01	6.6601e-03	2.4732e+03
175	3.6001e-01	2.0540e-02	3.1911e-01	4.1642e-02	2.3912e+03
176	1.0237e+00	2.0004e-01	1.1165e-01	2.2005e-02	4.4522e+02
177	4.5907e-03	3.1161e-01	-6.3729e-02	-2.2546e-02	4.6881e+02
178	2.5086e-01	1.8762e-01	-7.2105e-03	-2.4356e-01	1.2444e+03
179	6.0268e-01	1.7594e-01	-1.4835e-01	5.1610e-02	1.0450e+03
180	1.5681e-01	3.0943e-01	2.9528e-01	-9.3295e-02	8.2986e+01
181	2.5922e-01	1.7413e-01	2.6296e-02	-2.3141e-01	1.3342e+03
182	8.2309e-02	2.2925e-01	3.4075e-02	-3.7010e-02	1.0071e+03
183	1.0615e-01	2.2232e-01	-5.8010e-02	3.7947e-02	9.9479e+02
184	6.7538e-01	2.2118e-01	1.8485e-01	-1.7653e-01	5.6024e+02
185	1.7693e-01	3.0575e-01	2.2661e-01	-3.7491e-02	1.3970e+02
186	7.9802e-01	1.0984e-01	2.0002e-01	1.5453e-01	1.5614e+03
187	2.0137e-01	2.3950e-01	8.6690e-02	-7.8725e-03	8.3229e+02
188	2.5905e-01	2.6238e-01	1.8083e-01	-1.7219e-01	4.4763e+02
189	8.8000e-01	2.1326e-01	1.3322e-01	1.4233e-01	7.8162e+02
190	4.8264e-01	3.3448e-02	3.4752e-01	1.2716e-01	2.0328e+03
191	5.8449e-01	3.1822e-02	2.4617e-01	1.0064e-01	2.2691e+03
192	2.9607e-02	2.3802e-01	-5.9546e-02	-7.5781e-02	9.8550e+02
193	2.6101e-02	1.7917e-01	5.4104e-02	-1.0313e-01	1.4714e+03
194	4.3187e-02	2.9460e-01	1.6013e-02	-1.0432e-01	5.4467e+02
195	1.6939e-01	4.7204e-02	7.8926e-02	-4.7400e-02	2.4720e+03
196	-2.3042e-03	6.8799e-02	2.1612e-01	1.0151e-01	2.3426e+03
197	2.7307e-02	3.2981e-01	1.5707e-02	-2.9615e-01	5.6789e+01
198	8.2647e-02	1.7167e-01	7.4903e-02	-2.7647e-02	1.6055e+03
199	2.2973e-01	9.3090e-02	-3.5847e-02	6.9791e-03	2.2365e+03
200	4.6923e-02	1.5512e-01	-1.0538e-02	-5.0872e-02	1.7589e+03
201	2.1739e-02	2.2303e-01	-2.6850e-03	-9.8899e-02	1.1517e+03
202	1.5738e-01	1.1949e-01	-7.4586e-02	1.3300e-02	2.0453e+03
203	9.0577e-02	1.0333e-01	3.8530e-02	-4.2141e-03	2.0724e+03
204	1.2484e-01	1.2531e-01	-3.2365e-02	2.9837e-02	1.8756e+03
205	1.7708e-01	2.9195e-01	1.6270e-01	-1.0804e-01	1.5701e+02
206	2.0867e-01	2.9096e-01	1.4996e-01	3.6648e-02	3.2053e+02
207	1.2282e-01	1.0719e-01	-1.1611e-01	-4.6187e-03	2.0766e+03
208	4.2996e-02	2.4306e-01	-4.3295e-03	-9.6726e-02	1.0052e+03
209	1.0620e-01	1.3104e-01	8.4077e-02	9.7049e-03	1.8497e+03
210	3.7028e-01	3.2188e-02	3.8949e-01	-2.9730e-02	2.4895e+03
211	1.7512e-01	2.7412e-01	1.9371e-01	-7.3327e-02	4.7019e+02
212	7.2624e-02	2.8545e-01	1.9546e-02	-4.9814e-02	5.3887e+02
213	9.6927e-02	6.8468e-02	-2.2971e-02	2.9264e-02	2.3976e+03
214	2.0560e-02	3.0320e-01	-2.2531e-02	-7.7811e-02	4.5766e+02
215	1.6145e-01	1.6424e-01	-5.3309e-02	6.5481e-03	1.5170e+03
216	7.2429e-01	2.4492e-01	1.3854e-01	3.8821e-02	3.7926e+02
217	9.3098e-02	1.6105e-01	8.2134e-02	-6.8807e-02	1.5639e+03
218	2.3693e-01	1.8239e-01	3.1062e-02	-7.8716e-02	1.4117e+03
219	5.5473e-01	3.8650e-02	1.8018e-01	-3.9387e-02	1.9795e+03
220	2.4654e-01	3.4219e-02	7.0008e-02	1.4331e-03	2.4144e+03
221	5.3961e-01	1.7312e-01	-5.3666e-02	3.6689e-01	8.1175e+02
222	6.1412e-02	2.9417e-01	1.1459e-01	-2.4489e-02	4.8846e+02
223	2.7774e-01	1.6700e-01	3.7208e-02	-2.6134e-01	1.2559e+03
224	2.4254e-01	2.0563e-04	3.0512e-01	-2.6068e-01	2.3179e+03
225	5.6218e-01	2.3748e-01	4.0263e-02	2.2050e-01	2.9391e+02
226	9.4725e-02	1.7110e-01	2.2612e-02	5.0847e-02	1.5243e+03
227	7.7290e-01	1.5234e-01	2.5068e-01	1.8342e-02	1.2016e+03
228	5.2090e-01	6.5900e-02	1.9336e-01	1.8962e-01	1.9177e+03
229	2.0962e-01	2.9426e-01	1.6751e-01	-6.1488e-02	1.4959e+02
230	1.3496e-01	1.5458e-01	8.5801e-02	8.1132e-02	1.7298e+03
231	1.5752e-01	1.3745e-01	-3.5510e-02	-8.5224e-02	1.7749e+03
232	1.3986e-01	1.8654e-01	-3.2812e-03	1.6670e-02	1.3635e+03
233	4.3355e-01	1.6511e-02	3.6799e-01	1.7724e-01	2.3262e+03
234	7.7294e-01	9.6079e-02	1.2946e-01	-3.3204e-02	1.7376e+03
235	4.6576e-01	9.4525e-02	2.9097e-01	8.0122e-02	1.6573e+03
236	3.3874e-01	2.2756e-01	-1.1495e-01	-1.9827e-03	7.8780e+02
237	3.0501e-01	4.1581e-02	2.2816e-01	1.8512e-02	2.4864e+03
238	1.2510e-02	2.2863e-02	3.6887e-02	1.4573e-02	2.4973e+03
239	7.1701e-01	2.1092e-01	6.9122e-02	2.5656e-02	6.4118e+02
240	2.8561e-01	1.3654e-01	1.5143e-01	-2.1593e-01	1.6479e+03
241	3.2666e-01	2.5872e-01	-1.7643e-02	-2.3798e-02	3.7434e+02
242	8.4341e-01	2.5641e-01	2.0089e-01	-3.3364e-01	2.6033e+02
243	8.9090e-01	5.0220e-02	2.2126e-02	-1.5688e-01	2.3627e+03
244	1.6158e-01	2.3021e-01	9.3955e-02	-7.2206e-02	9.2074e+02
245	9.3441e-02	2.5589e-01	3.3325e-02	5.2027e-02	8.0325e+02
246	1.7596e-01	2.8456e-01	2.3357e-01	-1.6818e-01	3.1885e+02
247	6.7272e-01	1.5260e-01	9.4800e-02	1.3232e-01	1.1800e+03
248	8.0754e-01	1.4171e-01	4.0107e-01	-2.2837e-01	1.5598e+03
249	1.7336e-01	2.0727e-02	5.5322e-02	-8.2818e-02	2.5465e+03
250	8.5136e-02	9.1187e-02	-3.0677e-02	-1.0764e-01	2.1791e+03
251	2.7470e-01	2.0046e-01	-3.8133e-02	-9.6639e-02	9.5846e+02
252	9.0789e-01	1.5716e-01	1.8218e-01	-1.2090e-02	1.3878e+03
253	6.8233e-02	2.4191e-01	4.5265e-02	-7.1760e-02	1.0034e+03
254	2.8061e-01	2.1598e-01	7.2017e-02	-2.1349e-01	8.4357e+02
255	4.0723e-01	2.3237e-01	-3.0294e-01	1.8025e-02	4.8880e+02
256	1.7883e-01	1.9005e-01	3.8856e-02	-1.4277e-02	1.3464e+03
257	3.9767e-02	2.9643e-02	1.1383e-01	6.2330e-02	2.4978e+03
258	1.7072e-01	6.9777e-02	7.4657e-02	-1.4685e-02	2.4832e+03
259	2.2536e-02	2.6657e-01	-1.9152e-02	-8.9017e-02	8.3779e+02
260	1.4634e-01	2.2399e-01	2.9858e-02	3.3459e-02	1.0166e+03
261	6.3088e-02	8.5717e-02	-2.6693e-02	-4.9279e-02	2.1841e+03
262	2.6646e-01	2.9339e-01	1.1096e-01	2.1254e-02	1.5560e+02
263	2.2285e-01	1.8780e-01	1.1785e-01	-1.4952e-01	1.2483e+03
264	4.8892e-02	1.9924e-01	-5.8813e-02	1.7859e-03	1.2910e+03
265	7.4968e-03	3.3008e-01	-2.1322e-02	-4.9470e-02	0.0000e+00
266	3.4359e-02	3.1915e-01	6.8385e-02	-1.9867e-01	2.4201e+02
267	3.0413e-02	1.3487e-01	1.2009e-02	-1.1378e-01	1.8209e+03
268	2.6312e-01	9.1975e-02	2.1880e-02	-2.6267e-01	2.1689e+03
269	3.1355e-01	2.4521e-01	5.7409e-03	-1.5086e-01	5.8402e+02
270	1.8122e-02	2.9257e-01	-8.9662e-03	-9.2419e-02	6.3204e+02
271	1.1115e-01	2.1714e-01	-1.9881e-02	-3.4291e-02	1.0907e+03
272	1.9030e-01	2.4116e-01	1.8729e-01	-4.8859e-02	8.4082e+02
273	1.5861e-02	2.1652e-01	-2.6912e-02	-8.0300e-02	1.1809e+03
274	2.6244e-01	2.4337e-02	2.4900e-02	-1.0698e-01	2.6942e+03
275	8.6680e-02	1.9034e-01	-6.7491e-02	3.7875e-02	1.3425e+03
276	3.6748e-01	9.4013e-03	2.5601e-01	2.7138e-02	2.1720e+03
277	4.5966e-01	5.3589e-02	3.7916e-01	1.5493e-02	2.0708e+03
278	1.9704e-01	9.2994e-02	-1.2088e-01	-7.4660e-02	2.2058e+03
279	2.0247e-01	2.5787e-01	1.4724e-01	2.5583e-02	5.4565e+02
280	5.9810e-01	7.3250e-02	2.3132e-01	-4.5590e-03	1.8661e+03
281	1.9213e-01	3.0543e-01	1.8409e-01	-8.9519e-02	1.2255e+02
282	1.1827e-01	2.5118e-01	4.7937e-03	-1.6102e-02	7.7388e+02
283	6.0696e-02	3.2994e-01	9.9988e-02	-1.4923e-01	0.0000e+00
284	5.3317e-01	1.2365e-01	7.9866e-03	2.0514e-01	1.3977e+03
285	1.2089e-01	1.9940e-01	-4.8824e-02	4.7585e-02	1.1843e+03
286	1.4374e-01	1.6019e-01	1.6428e-02	3.3077e-02	1.6720e+03
287	8.7657e-02	1.9679e-01	-3.3972e-02	8.1804e-03	1.2979e+03
288	9.4889e-01	1.3465e-01	2.3938e-01	6.2934e-02	1.5541e+03
289	3.6779e-02	1.3094e-01	1.6168e-02	3.2125e-02	1.8875e+03
290	2.9452e-01	3.4390e-02	1.2516e-01	8.2264e-02	2.4453e+03
291	1.0892e-01	1.1445e-01	-1.1570e-02	4.1280e-02	1.9483e+03
292	5.0986e-01	4.8422e-02	3.7141e-01	1.0876e-01	2.0338e+03
293	7.5386e-02	3.2984e-01	9.8726e-02	-7.9626e-02	0.0000e+00
294	5.2499e-01	3.4489e-02	1.8884e-01	3.3472e-02	2.1323e+03
295	1.3250e-01	6.2038e-02	5.0822e-02	-4.8453e-02	2.4110e+03
296	2.0376e-01	3.0484e-01	2.5339e-01	-3.9609e-02	6.7663e+01
297	2.6102e-01	3.0276e-01	1.3299e-01	-2.9445e-02	6.7044e+01
298	3.3207e-01	2.5437e-02	1.4596e-01	-2.5909e-02	2.5311e+03
299	1.6374e-01	5.8422e-02	-1.6945e-02	-2.0580e-02	2.4391e+03
300	8.2349e-02	6.3923e-02	-5.3405e-02	-3.2812e-02	2.4678e+03
301	3.8515e-01	3.4606e-02	2.2532e-01	-8.5927e-02	2.4072e+03
302	4.2620e-01	2.4985e-01	-1.0611e-01	-1.6802e-01	2.7388e+02
303	1.3331e-01	9.0906e-02	3.2029e-02	-3.1706e-02	2.1292e+03
304	9.2970e-01	8.7495e-02	1.0336e-01	-7.5230e-02	1.9798e+03
305	2.3864e-01	2.0798e-01	-8.3296e-02	-1.3429e-01	8.7565e+02
306	2.8771e-01	3.2623e-02	2.7461e-01	-6.1810e-02	2.5792e+03
307	1.7101e+00	2.8805e-01	6.0200e-01	1.5054e-01	2.9906e+02
308	2.5533e-01	3.9425e-02	9.4709e-02	-7.8651e-02	2.6890e+03
309	7.3077e-02	2.8214e-01	4.9827e-02	-8.5112e-02	5.8675e+02
310	6.5736e-01	1.3134e-01	1.2281e-01	3.7228e-02	1.3142e+03
311	1.4845e-01	7.4024e-02	-9.0960e-02	9.9745e-02	2.2262e+03
312	5.9747e-01	1.9847e-02	2.5257e-02	-4.8598e-03	2.3597e+03
313	1.5543e-02	2.2892e-01	5.3923e-02	6.2439e-03	1.0669e+03
314	4.9946e-02	3.3270e-01	9.0470e-02	-1.6406e-01	0.0000e+00
315	2.3349e-01	1.6577e-01	1.1223e-01	-1.3007e-01	1.5517e+03
316	1.0120e-01	3.2012e-01	2.8998e-01	-1.6515e-01	0.0000e+00
317	1.7971e-01	1.3542e-01	-7.8054e-02	-5.6225e-03	1.8636e+03
318	7.0390e-01	1.0399e-01	1.5826e-01	7.9586e-02	1.5991e+03
319	3.3529e-01	1.3128e-01	1.4620e-01	-1.5057e-01	1.5809e+03
320	6.2668e-03	1.4680e-01	2.4021e-02	-1.0064e-01	1.8228e+03
321	1.0317e-01	3.0138e-01	1.4559e-01	-9.6104e-02	2.6807e+02
322	4.4321e-02	5.2807e-02	2.1122e-03	-1.2862e-02	2.4492e+03
323	2.2074e-01	1.5240e-01	9.6652e-02	-1.2395e-01	1.7246e+03
324	4.5426e-01	-2.9001e-03	4.1536e-02	-1.3605e-01	2.5709e+03
325	4.2643e-02	2.3224e-01	1.6130e-02	-4.9615e-02	1.0305e+03
326	1.2580e-01	2.1803e-01	-1.7112e-02	1.4687e-02	1.0766e+03
327	2.1898e-01	1.7888e-01	-3.9728e-02	-1.0427e-01	1.3438e+03
328	1.6996e-01	1.5408e-01	-9.4746e-02	-2.4786e-02	1.6805e+03
329	1.0987e-02	1.9949e-01	-1.6027e-02	-1.8362e-02	1.2776e+03
330	1.4853e-01	3.8356e-02	1.6556e-02	4.3916e-02	2.4441e+03
331	8.5930e-02	1.2424e-01	-7.1537e-02	1.3033e-03	1.9826e+03
332	1.1770e-01	6.7408e-02	1.1399e-01	-4.9034e-02	2.3985e+03
333	4.6475e-02	1.2624e-01	4.2576e-02	-8.5602e-02	1.9922e+03
334	1.7109e-02	1.9307e-01	8.5288e-02	-1.4501e-01	1.3201e+03
335	7.0969e-02	2.6888e-01	8.9455e-02	-2.8363e-02	6.4163e+02
336	1.4475e-01	6.2548e-02	1.2330e-01	-2.4471e-02	2.3767e+03
337	1.1470e-01	1.4417e-01	-4.5020e-02	4.2189e-02	1.7820e+03
338	8.5963e-01	1.6165e-01	3.3986e-01	5.2384e-02	1.3574e+03
339	1.0448e-01	1.9817e-01	3.6478e-02	7.8886e-02	1.2835e+03
340	2.3450e-01	4.6773e-02	9.6336e-02	-2.6969e-02	2.5579e+03
341	2.4616e-01	1.1571e-02	6.0643e-02	-1.1817e-01	2.4623e+03
342	1.6261e+00	1.6230e-01	2.6586e-01	2.7426e-01	1.1545e+03
343	5.0147e-01	1.6624e-02	-9.7319e-03	4.4878e-02	2.2231e+03
344	4.3074e-01	5.5739e-02	4.2156e-01	-3.0701e-03	2.0678e+03
345	2.9500e-01	8.6848e-02	2.6940e-01	-3.4806e-01	1.9948e+03
346	1.3465e+00	2.2215e-01	3.8196e-01	-4.5222e-02	3.7091e+02
347	2.1411e-01	3.6213e-02	6.6661e-02	-1.3355e-02	2.4832e+03
348	1.5152e-01	2.8561e-01	2.7210e-01	-1.2721e-01	3.3971e+02
349	1.5128e-01	1.9326e-01	3.2269e-03	5.1817e-03	1.2821e+03
350	1.0542e-01	3.1001e-02	1.1749e-01	-4.5673e-02	2.5844e+03
351	2.0505e-01	5.3873e-02	6.3640e-02	7.0377e-02	2.4699e+03
352	1.5396e+00	2.7750e-01	4.9663e-01	-4.1826e-02	0.0000e+00
353	2.2259e-01	5.7063e-02	1.0408e-01	-3.8483e-02	2.5146e+03
354	1.7262e-01	1.7634e-01	-1.8323e-02	2.1693e-03	1.5135e+03
355	1.6049e-01	2.5265e-01	8.4095e-02	5.1195e-02	6.6924e+02
356	2.6605e-01	1.6158e-01	7.7240e-02	-1.2227e-01	1.4202e+03
357	1.0911e-01	1.7833e-01	-1.5507e-02	-1.9305e-02	1.5364e+03
358	2.5878e-01	1.7441e-03	1.9055e-01	9.0845e-02	2.6693e+03
359	7.2091e-02	1.3742e-01	-1.2588e-01	-6.8163e-03	1.8016e+03
360	1.3831e-01	7.8851e-02	1.3029e-02	1.8163e-02	2.2386e+03
361	2.4351e-01	2.8360e-01	1.7687e-01	-1.5228e-01	2.5197e+02
362	8.3420e-02	1.6220e-01	2.9128e-02	2.7773e-02	1.6538e+03
363	4.2482e-01	3.9730e-02	3.6780e-01	7.3933e-02	2.1925e+03
364	2.0673e-01	8.0998e-02	5.3211e-02	8.1585e-03	2.2992e+03
365	5.5255e-01	1.1855e-01	1.3884e-01	1.4579e-01	1.4797e+03
366	4.7520e-01	2.0249e-02	2.5342e-01	5.1068e-02	2.2856e+03
367	2.8400e-01	3.1310e-01	1.1001e-01	-7.4167e-02	0.0000e+00
368	1.0698e-01	3.2081e-01	2.3563e-01	-1.4642e-01	4.8276e+01
369	7.4378e-02	1.0357e-01	4.5026e-02	-6.1236e-02	2.2175e+03
370	4.5615e-01	5.7780e-02	3.9559e-01	7.6317e-02	2.0418e+03
371	1.8549e-01	9.0675e-02	-5.2135e-03	-4.9357e-03	2.2816e+03
372	6.7202e-01	2.5983e-01	-6.5731e-02	-2.6223e-01	3.8523e+02
373	6.4758e-02	1.9728e-01	-6.7490e-02	-9.4867e-02	1.3075e+03
374	9.6380e-02	1.2297e-01	-3.8884e-02	8.7892e-03	2.0296e+03
375	5.1791e-01	1.1899e-01	1.9223e-01	2.2402e-01	1.4393e+03
376	7.4852e-01	1.7806e-01	2.1036e-01	-1.3073e-01	9.9929e+02
377	1.4395e-01	1.2918e-01	-9.3685e-03	1.4396e-02	1.9126e+03
378	1.5633e-01	2.7160e-01	1.2974e-01	-1.3780e-01	4.8952e+02
379	2.8653e-01	2.9580e-01	1.5988e-01	-3.8487e-02	8.2881e+01
380	2.2386e-01	1.0130e-01	-3.3661e-02	-1.3273e-01	2.2335e+03
381	8.4796e-01	1.5610e-01	5.0930e-01	-5.3240e-02	1.3369e+03
382	8.5490e-01	5.7406e-02	4.4974e-03	6.0797e-02	2.2403e+03
383	3.9663e-01	3.7774e-03	2.8929e-01	1.0365e-01	2.2237e+03
384	2.4682e-01	3.0808e-01	1.2335e-01	-2.8328e-02	2.3683e+02
385	5.6450e-02	1.6180e-02	1.8216e-01	2.1169e-02	2.3324e+03
386	-1.5739e-03	2.9490e-02	2.0901e-02	1.0866e-02	2.3894e+03
387	2.2074e-01	1.6053e-01	3.3356e-02	-8.0761e-02	1.7624e+03
388	1.1096e-01	1.5511e-01	2.5148e-02	-1.5006e-04	1.6983e+03
389	1.7040e-01	2.3786e-01	9.3664e-02	3.2864e-03	8.5261e+02
390	5.4037e-02	1.7508e-01	7.8951e-02	-3.9645e-02	1.5312e+03
391	2.6155e-01	2.8117e-01	1.0146e-01	-6.5523e-02	4.0341e+02
392	4.1896e-02	1.4980e-01	4.2081e-02	-2.7313e-02	1.7080e+03
393	1.1119e-01	3.0316e-01	2.3205e-01	-1.4655e-01	2.9780e+02
394	9.7229e-02	2.7998e-01	9.0485e-02	-1.0031e-02	5.1430e+02
395	7.0511e-01	2.0252e-01	1.5095e-01	-1.6931e-01	7.2741e+02
396	2.1914e-02	2.3722e-01	5.1522e-02	3.3925e-02	9.9812e+02
397	1.2384e-02	1.4122e-01	6.3864e-02	-2.3921e-02	1.8054e+03
398	6.7273e-02	5.8668e-02	-7.4824e-03	-5.0803e-02	2.4625e+03
399	-5.7874e-04	8.1190e-02	1.0616e-01	-5.7424e-02	2.1780e+03
400	2.8618e-02	9.0114e-02	5.6277e-03	4.0899e-03	2.1165e+03
401	6.4729e-01	6.9715e-03	1.2479e-01	-2.7203e-02	2.5384e+03
402	4.8060e-02	1.6274e-01	-8.3597e-03	-1.1899e-01	1.6726e+03
403	3.9720e-02	1.7314e-01	7.0112e-02	-2.4700e-02	1.5159e+03
404	1.9810e-01	5.1464e-02	6.5831e-02	-7.2355e-02	2.5880e+03
405	8.1377e-02	3.0292e-01	1.2334e-01	-1.8463e-02	3.2364e+02
406	5.0243e-02	8.7955e-02	-3.2282e-02	6.6269e-03	2.2659e+03
407	2.6875e-01	2.4889e-03	1.4124e-01	5.8017e-02	2.5127e+03
408	4.6398e-01	1.9924e-01	-2.3595e-01	1.5950e-02	6.8613e+02
409	2.2941e-01	2.7339e-01	1.5826e-01	-3.1348e-02	4.4596e+02
410	2.9417e-01	2.0601e-02	2.5375e-01	-8.4003e-02	2.5678e+03
411	4.5380e-01	2.3989e-01	-1.5927e-01	-1.8060e-01	2.9237e+02
412	7.2685e-02	1.5325e-01	6.8115e-02	2.3066e-02	1.6454e+03
413	3.3293e-02	4.5034e-02	1.9099e-02	-1.5351e-01	2.5520e+03
414	1.3829e-01	3.0098e-01	2.8346e-01	-1.0995e-01	2.8516e+02
415	2.2504e-01	2.2622e-01	8.9275e-02	-1.2254e-01	9.2228e+02
416	1.7721e-01	2.0045e-01	-1.0137e-02	-3.9426e-02	1.2083e+03
417	1.1767e-01	4.7046e-02	5.2683e-02	-6.3613e-02	2.5066e+03
418	1.9088e-01	1.4833e-01	9.1843e-02	-6.6360e-02	1.7946e+03
419	2.2025e-01	1.6658e-01	-3.7681e-02	-1.5274e-01	1.6332e+03
420	1.2914e-01	1.4539e-01	9.2416e-03	1.0999e-03	1.7088e+03
421	7.5070e-03	2.8926e-01	7.6256e-02	-1.3584e-01	6.4279e+02
422	6.6837e-01	2.2519e-01	2.3665e-01	-4.1593e-02	6.0513e+02
423	1.3592e-01	3.1657e-01	2.4738e-01	-1.4992e-01	0.0000e+00
424	1.3258e-01	7.2523e-02	1.1183e-01	-2.3586e-02	2.2940e+03
425	2.1259e-01	2.4178e-02	-9.1070e-04	-8.5459e-02	2.5049e+03
426	2.7416e-01	9.8398e-02	4.8025e-02	-2.3973e-01	2.1356e+03
427	9.4032e-02	2.8608e-01	4.9526e-02	-8.4804e-02	5.4382e+02
428	5.0055e-03	1.1166e-01	-6.9369e-02	1.3895e-03	2.0071e+03
429	1.6957e-01	2.4198e-01	1.3998e-01	-3.0520e-02	7.8513e+02
430	8.8230e-01	6.5389e-02	5.1546e-02	-7.2364e-02	2.3256e+03
431	6.3455e-02	1.5842e-01	2.4136e-02	-1.0697e-01	1.6597e+03
432	1.4406e-01	3.1245e-01	2.1628e-01	-3.4452e-02	4.9659e+00
433	1.2419e-01	2.4482e-01	9.7402e-02	-3.7172e-03	8.1036e+02
434	2.2660e-01	7.9884e-02	2.0750e-02	-9.2636e-02	2.3385e+03
435	4.2553e-01	1.2497e-01	1.0476e-01	-8.5794e-02	1.4393e+03
436	7.7338e-01	5.6710e-02	1.4822e-02	2.2625e-02	2.1210e+03
437	1.4523e-01	1.4738e-01	-2.3735e-03	2.2630e-02	1.7365e+03
438	2.2790e-01	1.9676e-01	-3.0560e-02	-1.7359e-01	1.0584e+03
439	1.3735e-01	2.5045e-01	9.6466e-03	-5.1648e-02	8.0598e+02
440	4.9699e-01	5.1624e-02	3.3186e-01	6.8004e-02	1.9931e+03
441	2.3773e-01	9.0438e-03	6.4739e-02	-1.3691e-02	2.4921e+03
442	3.7619e-01	1.8837e-02	2.9295e-01	6.4463e-03	2.4703e+03
443	1.8393e-01	8.6017e-02	-2.2623e-02	2.7761e-02	2.3050e+03
444	3.4203e-01	2.2586e-03	2.7621e-01	1.5099e-02	2.3746e+03
445	8.4726e-01	2.0550e-01	3.2807e-03	-1.1071e-01	8.4568e+02
446	2.2896e-01	8.9477e-02	4.1115e-02	2.4427e-02	2.2654e+03
447	1.8901e-02	1.7358e-01	4.7527e-02	-7.1771e-02	1.5604e+03
448	3.0715e-02	-4.9948e-03	9.5331e-02	4.8605e-02	2.3762e+03
449	3.5504e-02	9.2282e-03	1.3521e-02	2.2425e-02	2.4653e+03
450	5.2302e-03	2.3817e-01	6.5172e-02	-7.8442e-02	1.0629e+03
451	2.5468e-02	3.3089e-01	1.1471e-01	-1.9648e-01	0.0000e+00
452	2.1240e-01	-3.2712e-03	1.2636e-01	5.3667e-02	2.3089e+03
453	5.3034e-02	7.9797e-02	1.2293e-01	-6.1548e-02	2.3570e+03
454	1.2099e-01	7.6205e-02	-4.4139e-02	-3.6122e-02	2.2579e+03
455	8.6370e-02	1.5283e-01	6.3606e-03	-8.0328e-03	1.7504e+03
456	1.9378e-01	1.9629e-02	-1.9199e-02	-6.3943e-02	2.5810e+03
457	4.2031e-02	2.7654e-02	1.5184e-01	-1.1181e-01	2.5964e+03
458	1.5756e-02	5.0912e-02	1.3936e-02	-6.8246e-03	2.3959e+03
459	5.4815e-02	2.1798e-02	-9.0440e-02	4.9894e-02	2.4660e+03
460	1.3053e-01	1.8405e-01	-6.8657e-02	-2.4079e-02	1.4146e+03
461	8.1786e-02	3.2222e-01	2.2521e-01	-6.5879e-02	3.6669e+01
462	5.8005e-02	3.2169e-01	1.4348e-01	-3.8962e-02	3.0004e+02
463	2.1603e-02	1.9043e-01	-5.8275e-02	-3.0249e-02	1.3536e+03
464	8.5436e-02	4.5976e-02	1.9420e-02	1.3670e-02	2.5916e+03
465	6.4303e-03	2.8896e-01	-5.0790e-02	-1.2219e-02	5.7672e+02
466	7.7649e-02	2.0682e-01	-1.0634e-02	-1.7047e-02	1.2306e+03
467	1.8945e-01	2.0349e-01	3.5551e-02	-2.9356e-02	1.1889e+03
468	1.3225e-02	6.4288e-02	-7.1115e-03	-6.0953e-02	2.2299e+03
469	2.8382e-01	2.4650e-01	1.1540e-01	-8.1007e-02	4.6253e+02
470	4.6396e-02	9.3599e-02	-1.4722e-02	-3.8872e-03	2.2102e+03
471	2.5506e-01	2.3822e-02	1.0332e-01	8.5641e-02	2.5519e+03
472	4.0622e-02	2.7913e-01	1.0020e-01	-8.1540e-02	7.5488e+02
473	1.2071e-01	2.3074e-01	4.2979e-02	4.7329e-02	9.6059e+02
474	7.6473e-03	8.9574e-02	-4.1112e-02	1.1404e-01	2.0651e+03
475	5.6457e-03	2.7270e-01	8.0445e-03	-1.1207e-01	7.3055e+02
476	3.4226e-01	4.0686e-02	2.7825e-01	-5.3664e-02	2.4540e+03
477	2.4190e-01	1.6005e-01	1.2052e-01	-1.1568e-01	1.7213e+03
478	8.8336e-02	2.9935e-01	1.4774e-01	-1.2890e-01	3.4601e+02
479	1.7947e-01	1.6546e-01	7.4204e-02	-2.2601e-02	1.5341e+03
480	2.3646e-01	2.9214e-01	1.3121e-01	3.4268e-02	3.1618e+02
481	4.7652e-01	5.6171e-02	3.7206e-01	8.4166e-02	1.8781e+03
482	4.2231e-01	8.6090e-02	2.0852e-01	1.3153e-01	1.8944e+03
483	4.1847e-02	7.8348e-02	1.0673e-01	-3.4566e-02	2.2721e+03
484	1.4076e-01	2.5417e-01	7.6816e-02	-1.1219e-01	7.0517e+02
485	6.5475e-02	7.4925e-02	1.8192e-02	6.2163e-02	2.3102e+03
486	2.8363e-01	2.9084e-01	5.5548e-02	-1.1249e-01	2.0209e+02
487	1.2362e-01	2.8494e-01	1.6309e-01	-8.9444e-02	4.4299e+02
488	1.7972e-01	2.5017e-01	1.7425e-01	-1.8159e-02	7.6515e+02
489	1.3547e-01	4.0198e-02	8.6799e-02	1.0206e-02	2.4422e+03
490	3.4302e-02	1.6678e-01	2.9390e-02	-1.9983e-02	1.5205e+03
491	3.4171e-02	2.6038e-01	1.8477e-02	-3.4429e-02	8.5136e+02
492	1.8440e-02	3.2720e-01	3.3688e-02	-1.5521e-01	-2.4824e+02
493	1.6915e-01	2.5724e-01	1.8308e-01	-1.0158e-01	5.2783e+02
494	2.0897e-01	1.9900e-02	3.9839e-05	4.8995e-02	2.5984e+03
495	1.1938e-01	2.1035e-01	8.4570e-03	4.8136e-02	1.1611e+03
496	6.6508e-01	1.3066e-01	7.6361e-02	1.5801e-01	1.3009e+03
497	9.9080e-02	1.5147e-01	6.1657e-02	-2.9898e-02	1.7369e+03
498	2.9076e-02	3.1059e-01	4.0892e-02	-1.2872e-01	5.7847e+02
499	1.2503e-01	2.7258e-02	1.1466e-01	5.8889e-02	2.4168e+03
500	4.0443e-01	4.8670e-02	4.2323e-01	-3.9391e-02	2.2264e+03