variables="k","x","y","vx","vy","pressure"
zone i=8064 j=1
0	2.4336e-01	1.6839e-01	1.3968e-01	5.7758e-02	7.9675e+02
1	1.6265e-01	2.2191e-01	-3.0039e-02	-3.5468e-02	3.3326e+02
2	5.0680e-02	1.7312e-01	-2.8713e-02	-9.0283e-02	8.0432e+02
3	3.7993e-01	6.0242e-05	2.9343e-01	-7.0952e-02	1.9368e+03
4	1.2905e-02	2.2382e-01	2.8731e-02	-2.5904e-02	5.0697e+02
5	6.5407e-01	1.3046e-01	2.7081e-01	1.5651e-01	1.1738e+03
6	3.1580e-01	8.5136e-02	-5.7569e-02	-1.0740e-01	1.6650e+03
7	1.5398e-01	1.4384e-01	4.1708e-04	6.9203e-02	9.8217e+02
8	-2.6070e-03	2.7278e-02	3.3784e-02	5.7558e-02	1.9153e+03
9	6.1855e-01	1.1290e-01	3.9410e-01	2.4643e-01	1.4159e+03
10	1.3699e-01	2.3697e-01	3.3021e-02	-1.0905e-03	1.8286e+02
11	2.6762e-01	1.8349e-01	1.0053e-01	-2.8931e-02	6.8908e+02
12	5.0987e-01	1.9255e-01	-1.2983e-01	-9.1247e-02	5.4934e+02
13	4.8468e-01	1.4587e-01	3.6448e-02	-2.9769e-01	1.0247e+03
14	6.6672e-01	1.1715e-01	4.1666e-01	1.0013e-01	1.4050e+03
15	2.6238e-01	2.3874e-01	2.1900e-01	-1.0100e-01	0.0000e+00
16	3.1863e-01	2.1422e-01	1.9198e-01	-1.2538e-01	2.8837e+02
17	8.7601e-01	9.0065e-02	2.9390e-01	-5.5108e-02	1.8342e+03
18	9.6329e-01	1.2094e-01	2.9285e-01	3.7972e-02	1.4717e+03
19	6.7851e-02	1.8541e-01	-3.6448e-02	-2.8853e-02	6.9142e+02
20	2.3377e-01	2.3013e-01	2.3188e-01	4.2272e-02	2.6111e+02
21	1.6551e-01	2.3754e-01	9.8633e-02	-1.1009e-01	2.6140e+01
22	1.2642e-01	4.9322e-02	7.3133e-02	6.4987e-02	1.6870e+03
23	2.0106e-01	9.6299e-02	4.2445e-02	7.9623e-02	1.4362e+03
24	7.4922e-01	1.6104e-01	2.2455e-01	2.0116e-02	1.0151e+03
25	-1.1317e-03	1.1300e-01	9.4754e-02	3.8262e-02	1.3381e+03
26	1.0143e-01	6.8977e-02	1.1457e-01	-5.0919e-02	1.7140e+03
27	1.2877e-01	1.0859e-01	2.6192e-03	-4.3873e-02	1.3737e+03
28	3.7502e-01	1.8413e-02	1.3775e-01	-1.2527e-01	2.1740e+03
29	3.1801e-01	1.1234e-01	-3.7124e-02	-2.5644e-02	1.3369e+03
30	-1.4565e-03	8.2534e-02	3.7206e-01	-1.1211e-01	1.7441e+03
31	1.5891e-01	8.3209e-02	7.9662e-02	6.2669e-02	1.5077e+03
32	2.6454e-01	1.0915e-01	9.9137e-02	-2.1193e-02	1.4108e+03
33	6.3494e-01	2.5251e-01	2.0995e-01	1.4465e-03	1.0344e+02
34	9.3928e-01	5.5443e-02	2.0278e-01	-3.5089e-03	2.1668e+03
35	9.1005e-01	2.2093e-01	1.8039e-01	5.2689e-02	5.7916e+02
36	4.1130e-01	2.0286e-01	1.4799e-01	-2.2346e-01	4.4877e+02
37	9.1492e-01	1.5682e-01	3.6665e-01	-1.0254e-01	1.1558e+03
38	8.0538e-01	1.8237e-01	2.5172e-01	4.1287e-03	8.7919e+02
39	8.9095e-01	9.3990e-02	1.7405e-01	-2.0812e-02	1.8393e+03
40	2.1260e-01	1.8123e-01	6.5945e-02	-7.2288e-03	6.2107e+02
41	1.8443e-01	1.1047e-01	-2.4393e-02	1.1240e-01	1.3299e+03
42	2.3406e-01	5.6405e-02	3.6996e-02	-1.2029e-02	1.8621e+03
43	8.5378e-01	1.0372e-01	2.7824e-01	-6.9885e-02	1.6109e+03
44	2.2175e-01	1.6880e-01	1.0744e-01	-2.2735e-02	7.8467e+02
45	9.7376e-01	1.1910e-01	3.1754e-01	1.6233e-01	1.4637e+03
46	1.9821e-01	2.3669e-01	1.0268e-01	-1.0421e-01	3.2207e+01
47	2.3678e-01	1.5435e-01	1.2475e-01	9.3988e-03	9.2688e+02
48	8.1454e-02	2.0179e-01	-7.0257e-02	-4.3101e-02	5.5844e+02
49	2.2340e-01	2.1545e-01	1.9363e-01	-3.3763e-02	3.8661e+02
50	9.2651e-01	1.4477e-01	3.7308e-01	1.2839e-01	1.3750e+03
51	1.2824e-01	2.4405e-01	2.1923e-03	-4.8755e-03	0.0000e+00
52	1.8919e-01	6.4169e-02	-3.1239e-02	-3.9091e-02	1.6596e+03
53	1.1425e-03	1.6875e-01	3.2404e-02	-8.0064e-02	7.8830e+02
54	2.4925e-01	1.4356e-01	1.0431e-01	-5.4903e-02	1.0911e+03
55	4.2507e-01	1.1256e-01	5.9395e-02	-2.7404e-01	1.3390e+03
56	6.0714e-01	2.1063e-01	8.8984e-02	9.8263e-02	4.3675e+02
57	2.6293e-01	1.9591e-01	1.3372e-01	-4.0190e-03	5.1632e+02
58	1.0414e+00	2.1817e-01	2.8675e-01	1.9192e-01	5.0674e+02
59	4.8174e-01	2.4571e-01	1.3697e-01	-1.6269e-01	2.5135e+01
60	4.0785e-02	1.9336e-01	-3.9050e-02	-4.1053e-02	6.5816e+02
61	9.9519e-01	1.7484e-01	3.6043e-01	1.4818e-01	9.8790e+02
62	9.2208e-01	7.7157e-02	2.4421e-01	9.3859e-02	1.9772e+03
63	3.0544e-01	6.1933e-02	-7.9888e-02	-1.6900e-02	1.8878e+03
64	2.5987e-01	-8.6170e-03	1.0795e-01	1.4177e-02	1.9541e+03
65	-4.6308e-03	2.4917e-03	-1.1002e-01	-2.5389e-02	2.3172e+03
66	3.9297e-02	-6.3877e-03	7.2053e-02	1.6837e-01	1.7292e+03
67	1.6292e-01	1.9114e-01	-1.7696e-02	-7.3057e-03	5.6492e+02
68	5.0416e-02	3.3220e-02	-2.6787e-02	-5.8025e-02	1.9187e+03
69	8.8968e-02	1.2576e-01	4.3645e-02	-9.9118e-02	1.2296e+03
70	1.8123e-02	1.5098e-01	-5.6902e-02	-4.0071e-02	9.5560e+02
71	5.5910e-01	-1.0464e-04	1.4673e-01	7.0718e-02	2.2670e+03
72	4.8445e-01	1.6110e-01	1.5345e-02	-2.5762e-01	8.8547e+02
73	2.2334e-01	1.3103e-03	1.9626e-02	1.4221e-01	1.8315e+03
74	2.8829e-01	8.0698e-02	-4.1219e-02	-1.0686e-01	1.6996e+03
75	1.0247e+00	1.9136e-01	2.3001e-01	1.4812e-01	7.5432e+02
76	4.6442e-01	1.1857e-03	2.0147e-01	-2.0735e-01	2.1244e+03
77	3.3575e-01	1.4167e-01	8.3656e-02	-1.0442e-01	1.0831e+03
78	2.5208e-01	1.9323e-01	1.3529e-01	-5.3040e-02	5.5460e+02
79	1.1702e-01	1.6998e-01	3.4221e-02	1.6811e-02	7.4816e+02
80	3.7967e-01	1.9258e-01	1.0422e-01	-2.1686e-01	6.4490e+02
81	5.2039e-01	1.4767e-01	1.2689e-01	-2.3134e-01	9.8751e+02
82	2.4932e-01	8.1059e-02	-2.1211e-02	5.3486e-02	1.5942e+03
83	9.9906e-01	1.1558e-01	3.8924e-01	7.9171e-02	1.6572e+03
84	1.3540e-01	2.0751e-01	-2.2546e-02	-7.3598e-02	4.2762e+02
85	9.7745e-01	2.3006e-01	1.5183e-01	-4.3614e-02	3.4975e+02
86	1.2941e-01	1.8529e-01	-6.0186e-03	-2.0739e-02	6.4029e+02
87	1.5091e-01	1.8132e-01	2.7918e-02	-2.6965e-02	6.4958e+02
88	2.2940e-01	1.1270e-01	-7.5062e-02	5.7530e-02	1.3316e+03
89	6.9856e-01	5.4924e-02	1.2549e-01	-3.1768e-02	2.0504e+03
90	8.3189e-01	2.0524e-01	3.3563e-01	-1.5031e-02	7.1351e+02
91	2.1985e-01	2.3925e-01	2.3606e-01	-1.4511e-01	0.0000e+00
92	3.3813e-01	8.6221e-02	9.1663e-02	-9.9449e-02	1.6892e+03
93	2.1063e-01	1.9596e-01	9.2539e-02	-2.2261e-02	4.9604e+02
94	9.0957e-01	1.2576e-01	3.4954e-01	5.7309e-02	1.4542e+03
95	7.6635e-02	7.3645e-02	6.3658e-02	2.0199e-02	1.7060e+03
96	1.0649e+00	8.5605e-02	1.7093e-01	-5.0207e-02	1.7830e+03
97	2.5807e-01	8.6884e-02	-1.0144e-02	5.3700e-02	1.5054e+03
98	4.2495e-01	1.4520e-01	3.8593e-02	-2.1551e-01	9.6852e+02
99	8.6512e-01	1.9527e-01	2.6774e-01	-4.0369e-02	7.8481e+02
100	3.7090e-01	2.4184e-01	1.4631e-01	-1.0288e-01	0.0000e+00
101	2.3575e-01	2.0950e-01	1.7016e-01	-9.1388e-03	3.5970e+02
102	9.1371e-01	2.2960e-01	3.4247e-01	1.7418e-02	2.5405e+02
103	1.2158e+00	1.9460e-01	8.6434e-02	7.7172e-02	7.0605e+02
104	4.2568e-02	2.3557e-01	2.3129e-02	-8.3652e-02	6.5007e+01
105	6.2923e-01	9.6908e-03	1.9822e-01	6.8847e-02	2.5089e+03
106	2.6025e-01	7.8976e-02	4.7796e-02	-5.5216e-03	1.6314e+03
107	5.7013e-01	1.6905e-01	-3.0520e-03	2.4176e-02	9.5003e+02
108	2.6699e-01	1.8336e-01	7.3246e-02	6.3015e-02	6.8847e+02
109	8.7259e-01	1.2669e-01	2.8193e-01	9.2047e-02	1.4128e+03
110	1.1293e+00	1.7015e-01	2.3601e-01	1.0338e-01	9.7612e+02
111	1.0331e+00	2.3424e-01	2.6741e-01	1.7185e-01	3.1470e+02
112	1.9181e-01	1.5778e-01	-5.1623e-02	8.3280e-02	8.3137e+02
113	1.4082e-01	1.8562e-01	2.0269e-02	-4.9167e-02	6.3505e+02
114	2.4769e-01	2.2087e-01	2.0534e-01	-3.9950e-02	2.7698e+02
115	3.0654e+00	3.0315e-03	-1.1463e-02	4.2675e-02	1.4614e+03
116	8.4097e-01	2.4964e-01	3.4465e-01	-1.7533e-02	1.8891e+02
117	9.7128e-01	9.1435e-02	3.2248e-01	6.9101e-02	1.7544e+03
118	4.5172e-01	8.4609e-02	1.2076e-01	-1.5180e-01	1.6160e+03
119	2.9896e-01	1.9796e-01	1.6501e-01	-8.8852e-02	4.4259e+02
120	9.8258e-01	1.8386e-01	3.8083e-01	1.0121e-01	7.9595e+02
121	2.6741e-01	1.5319e-01	6.1668e-02	5.1121e-03	8.9100e+02
122	1.8918e-01	2.3024e-01	9.1088e-02	-2.9345e-02	2.7635e+02
123	3.7297e-01	1.7012e-01	2.6703e-02	-1.8374e-01	7.2231e+02
124	1.8528e-01	1.0262e-01	3.7446e-02	5.9418e-02	1.3467e+03
125	7.2460e-01	4.5404e-02	2.2812e-01	2.9497e-02	2.1577e+03
126	3.0243e-01	2.0811e-01	2.7484e-01	-1.5410e-01	4.0287e+02
127	6.0911e-01	2.6025e-01	1.6928e-01	-7.7728e-02	8.4815e+01
128	2.4092e-01	8.5528e-02	-4.2288e-03	-2.5486e-02	1.5934e+03
129	-1.9871e-03	6.8110e-02	1.0799e-01	-1.3960e-01	1.8163e+03
130	8.9624e-01	1.9228e-01	2.6523e-01	-3.1811e-02	8.0402e+02
131	3.6373e-01	2.4100e-01	1.8138e-01	-9.3787e-02	1.8753e+02
132	1.7205e-01	1.8908e-02	7.2697e-02	-6.8966e-02	1.8835e+03
133	2.9454e-01	-3.8763e-04	2.1364e-01	-2.0034e-01	1.9181e+03
134	1.9696e-02	6.4951e-02	6.8024e-02	7.4406e-03	1.7785e+03
135	4.3961e-02	1.7914e-01	6.1631e-03	-6.5107e-02	7.5544e+02
136	1.0846e-01	2.3409e-01	-5.9771e-06	-1.4241e-01	1.6268e+02
137	2.1966e-01	2.4023e-01	1.9701e-01	-1.4909e-01	0.0000e+00
138	6.1406e-01	1.7863e-01	4.9443e-02	1.8834e-01	6.4536e+02
139	2.8964e-01	1.8141e-01	1.2104e-01	-2.3749e-02	7.3395e+02
140	2.4955e-01	1.7992e-01	7.4677e-02	-6.6255e-02	6.4115e+02
141	2.9234e-01	6.4740e-03	1.0399e-01	1.0075e-01	1.9408e+03
142	9.8676e-03	2.3496e-01	4.7634e-02	-1.0844e-01	0.0000e+00
143	1.4188e-01	1.0141e-01	9.2639e-02	-1.5943e-02	1.4246e+03
144	3.4414e-01	1.4371e-01	4.0695e-02	-1.7534e-01	1.1688e+03
145	3.5693e-01	2.2094e-01	2.0103e-01	-1.9971e-02	2.0129e+02
146	8.6692e-01	1.7247e-01	2.7615e-01	-6.1721e-02	1.0730e+03
147	9.7704e-02	1.6953e-01	3.7551e-02	-6.2500e-02	7.8373e+02
148	1.4082e+00	2.3092e-01	1.2280e-01	2.9374e-02	5.3662e+02
149	6.3795e-01	1.1017e-01	4.2598e-01	1.7812e-01	1.4641e+03
150	6.4310e-01	1.5440e-02	1.6807e-01	2.2668e-03	2.1791e+03
151	2.0368e-01	2.3923e-01	1.8906e-01	-1.2415e-01	5.9839e+00
152	2.5576e-01	1.0301e-01	-2.5239e-02	5.3943e-02	1.4540e+03
153	5.7063e-01	1.5310e-02	1.3851e-01	-1.2253e-02	2.3888e+03
154	4.0735e-01	1.7792e-02	2.4857e-01	-4.0849e-02	2.0403e+03
155	5.4559e-02	1.0099e-01	-2.7508e-02	-8.7596e-02	1.4575e+03
156	6.1906e-01	1.5379e-01	1.7056e-01	1.1865e-01	1.0672e+03
157	3.1172e-01	2.1201e-01	1.8456e-01	-1.0490e-01	3.0645e+02
158	1.0592e+00	1.8956e-01	2.7715e-01	1.8334e-01	8.1205e+02
159	3.0651e-01	1.8901e-02	6.5170e-02	-7.9637e-02	2.1560e+03
160	7.0321e-01	1.4989e-02	1.6757e-01	-1.3243e-01	2.4009e+03
161	1.0010e+00	1.3417e-01	3.2731e-01	5.7511e-02	1.3982e+03
162	1.9245e-01	8.4432e-02	-1.5189e-02	1.2198e-02	1.5298e+03
163	3.1407e-01	2.3353e-01	1.8736e-01	-8.7333e-02	9.5865e+01
164	5.3267e-01	1.4488e-02	3.1858e-01	3.3538e-03	2.4191e+03
165	2.4448e-01	1.8638e-01	8.6556e-02	5.4036e-02	6.0295e+02
166	3.8947e-01	1.2958e-01	6.4530e-02	-2.6369e-01	1.1274e+03
167	2.3604e-01	1.6415e-01	1.1695e-01	4.9184e-02	8.0400e+02
168	1.9695e-01	4.0537e-02	1.1107e-01	-4.9018e-02	1.9175e+03
169	2.0455e-01	1.2386e-01	3.2572e-04	3.7855e-02	1.2270e+03
170	4.0593e-02	7.8339e-02	-1.9082e-03	-1.4288e-01	1.6954e+03
171	5.8455e-01	1.2614e-01	1.1332e-01	1.2996e-01	1.2960e+03
172	3.2462e-01	1.4148e-01	6.9667e-02	-2.4528e-02	1.0057e+03
173	1.7729e-01	1.7182e-01	3.4424e-02	8.1630e-02	7.1875e+02
174	4.3493e-01	1.0987e-02	3.6105e-01	3.0033e-03	2.1141e+03
175	6.0723e-01	1.3646e-02	2.6985e-01	6.0328e-02	2.3016e+03
176	1.1323e+00	1.9774e-01	1.9017e-01	3.4673e-02	6.2248e+02
177	3.8359e-03	2.2164e-01	2.9000e-02	-1.0932e-01	2.3663e+02
178	3.4108e-01	3.9445e-02	1.1227e-01	-1.7269e-01	2.2881e+03
179	6.7863e-01	2.4439e-01	2.5260e-01	-4.6566e-02	2.1097e+02
180	3.2640e-01	2.1142e-01	2.4186e-01	-1.3886e-01	3.1662e+02
181	3.3604e-01	5.5989e-02	5.2741e-02	-1.7788e-01	2.0602e+03
182	8.4929e-02	1.8028e-01	-1.7234e-02	-4.1074e-02	7.0252e+02
183	6.3872e-02	2.0046e-01	-7.4444e-02	-3.7150e-02	5.2656e+02
184	8.0372e-01	1.9947e-01	2.8963e-01	-9.7293e-02	7.0938e+02
185	3.4194e-01	2.0763e-01	2.8190e-01	-9.0246e-02	4.0736e+02
186	9.8864e-01	9.3368e-02	2.9432e-01	6.2096e-02	1.8475e+03
187	3.2971e-01	1.6440e-01	1.7183e-01	-8.6241e-02	8.4565e+02
188	3.5088e-01	1.2490e-01	8.8328e-02	-1.8184e-01	1.1044e+03
189	9.3318e-01	1.9244e-01	2.1378e-01	-4.6445e-02	8.3151e+02
190	6.7164e-01	7.4379e-02	1.8672e-01	3.1312e-02	1.6555e+03
191	7.0275e-01	4.0041e-02	7.5961e-02	2.7985e-02	2.0354e+03
192	2.3438e-02	1.8728e-01	-2.7468e-02	-6.2928e-02	5.9934e+02
193	4.4487e-02	1.1181e-01	2.4059e-02	-6.1055e-02	1.3085e+03
194	8.6816e-02	2.1552e-01	3.2085e-03	-9.4135e-02	3.8053e+02
195	2.1396e-01	3.9136e-03	5.4669e-02	-5.5316e-02	1.8842e+03
196	-2.7038e-03	4.0034e-02	2.1370e-01	-7.0446e-02	1.9767e+03
197	3.5599e-02	2.3550e-01	-9.1016e-03	-8.0821e-02	3.0898e+01
198	9.8439e-02	1.5908e-01	4.3469e-03	-3.6896e-02	9.1088e+02
199	2.3581e-01	6.1504e-02	8.4253e-03	-4.6579e-02	1.8192e+03
200	1.1163e-02	1.1100e-01	-1.0780e-02	-1.0170e-01	1.3801e+03
201	5.9629e-05	1.3863e-01	-1.3824e-01	-9.3151e-02	9.2448e+02
202	1.3530e-01	1.1106e-01	-2.6664e-02	-4.8869e-02	1.3675e+03
203	1.3194e-01	4.3307e-02	1.5428e-01	-4.8042e-02	1.7780e+03
204	1.3144e-01	1.2057e-01	2.5845e-02	-5.0142e-02	1.2583e+03
205	3.2813e-01	2.0305e-01	2.3623e-01	-7.0949e-02	4.1798e+02
206	3.3893e-01	2.3416e-01	2.0426e-01	-5.3412e-02	2.7705e+02
207	9.3825e-02	8.5488e-02	-3.4080e-02	-6.5302e-02	1.5614e+03
208	5.9850e-02	1.7590e-01	-9.9893e-03	-7.2681e-02	7.7245e+02
209	1.2509e-01	1.5610e-01	4.1701e-03	2.8554e-02	9.6241e+02
210	6.4087e-01	9.8920e-02	2.7418e-01	6.7624e-02	1.4785e+03
211	2.7293e-01	2.0016e-01	2.2528e-01	-4.5278e-02	3.8051e+02
212	1.0161e-01	2.3574e-01	-6.5141e-02	-6.1329e-02	0.0000e+00
213	1.4050e-01	3.2224e-02	8.9203e-02	-7.9935e-02	1.9464e+03
214	1.7281e-02	2.3816e-01	-7.4250e-02	5.3741e-02	6.9504e+01
215	1.8136e-01	1.4232e-01	-1.9933e-03	1.8071e-02	1.0690e+03
216	8.9008e-01	2.5473e-01	3.8934e-01	9.9460e-02	4.4496e+01
217	1.2427e-01	1.4130e-01	-3.5491e-02	-7.2477e-03	9.7319e+02
218	2.6383e-01	1.3165e-01	3.6464e-02	-7.3675e-02	1.0799e+03
219	6.8353e-01	5.5950e-02	3.6517e-01	1.0915e-01	1.9573e+03
220	2.9566e-01	2.6213e-02	5.2494e-02	1.1745e-01	1.8586e+03
221	5.3646e-01	2.3530e-01	-3.2365e-02	-1.7511e-01	1.4659e+02
222	9.5028e-02	2.2175e-01	-1.6244e-02	-9.4116e-02	2.5829e+02
223	3.5738e-01	6.5571e-02	2.1715e-02	-2.2716e-02	1.9240e+03
224	3.9044e-01	1.9053e-02	1.8784e-01	-3.8228e-02	2.0977e+03
225	6.3754e-01	2.5894e-01	2.5547e-01	-5.5703e-02	7.4371e+01
226	1.0667e-01	1.6997e-01	-4.7524e-02	-8.4993e-03	7.6316e+02
227	1.0120e+00	1.7491e-01	3.9175e-01	2.2857e-01	1.0193e+03
228	6.8887e-01	1.0119e-01	2.0247e-01	-2.4837e-02	1.5306e+03
229	3.3659e-01	2.1911e-01	1.4104e-01	-6.9360e-02	2.4065e+02
230	1.9131e-01	1.5107e-01	6.7696e-02	3.6472e-02	8.8585e+02
231	1.3877e-01	1.4302e-01	2.3319e-03	4.6378e-02	9.9739e+02
232	1.6187e-01	1.5770e-01	5.4368e-02	-2.0759e-02	9.0105e+02
233	6.6373e-01	1.1130e-01	2.7906e-01	1.6317e-01	1.3766e+03
234	9.2818e-01	1.2471e-01	3.4094e-01	5.7440e-04	1.4873e+03
235	5.5933e-01	1.8159e-01	-7.1493e-02	-1.0419e-02	6.8706e+02
236	3.2266e-01	9.1916e-02	2.2202e-02	-1.5848e-01	1.6606e+03
237	5.9299e-01	3.8442e-02	2.7046e-01	7.0592e-02	1.9272e+03
238	6.9194e-02	9.0751e-03	9.4136e-02	-5.4945e-02	1.9617e+03
239	8.5371e-01	2.2765e-01	3.4485e-01	2.8637e-02	5.1113e+02
240	4.6201e-01	5.0085e-02	3.0579e-01	5.5689e-02	1.8335e+03
241	3.9603e-01	1.7709e-01	1.3217e-01	-2.0484e-01	6.1880e+02
242	9.0210e-01	2.3021e-01	2.4861e-01	-7.0100e-02	2.4203e+02
243	9.0462e-01	3.1165e-02	1.0526e-01	-2.5698e-02	2.3299e+03
244	2.1424e-01	1.5867e-01	-1.1457e-03	-5.0380e-02	9.2015e+02
245	1.1240e-01	2.4417e-01	-1.4058e-02	-1.3741e-01	0.0000e+00
246	3.2299e-01	1.7102e-01	8.3330e-02	-1.6962e-01	7.1411e+02
247	7.5684e-01	1.7031e-01	2.0807e-01	-1.2147e-01	9.6999e+02
248	1.0522e+00	1.7898e-01	2.4515e-01	1.9709e-01	9.2873e+02
249	2.4141e-01	3.1297e-02	1.7728e-01	-6.5677e-03	1.7896e+03
250	1.0813e-01	6.9844e-02	9.7793e-02	2.5781e-02	1.7190e+03
251	2.8001e-01	1.2862e-01	-6.3427e-03	-1.9731e-02	1.1037e+03
252	1.0676e+00	2.4817e-01	2.7196e-01	1.3084e-01	1.9587e+02
253	8.0704e-02	1.9170e-01	-1.3378e-02	-4.9003e-02	5.8966e+02
254	3.7505e-01	8.1970e-02	1.9669e-01	-1.2768e-01	1.6863e+03
255	3.9868e-01	9.7321e-02	4.4709e-02	-2.9341e-01	1.5400e+03
256	2.2877e-01	1.8626e-01	1.2407e-01	3.3435e-02	6.5903e+02
257	8.3471e-02	1.4801e-02	1.2111e-01	2.5144e-02	1.9196e+03
258	2.0311e-01	1.0773e-01	1.1509e-02	5.5076e-02	1.3795e+03
259	1.5400e-02	1.6848e-01	4.4758e-02	-5.6722e-02	8.3153e+02
260	1.9244e-01	2.1689e-01	1.2527e-01	3.9152e-03	3.3453e+02
261	6.7888e-02	8.2230e-02	3.9426e-02	-2.9770e-02	1.5918e+03
262	3.9363e-01	2.3777e-01	1.4157e-01	-1.1564e-01	1.8818e+02
263	2.5741e-01	9.2943e-02	-1.7794e-01	3.4195e-02	1.4868e+03
264	3.7981e-02	1.3601e-01	1.0469e-01	-5.6305e-02	1.1392e+03
265	4.8156e-03	2.3474e-01	1.0308e-01	-9.0010e-02	0.0000e+00
266	6.3601e-02	2.3329e-01	1.6892e-02	-2.4020e-02	4.0132e+01
267	1.3631e-02	8.7940e-02	-4.7350e-02	-2.4130e-02	1.6603e+03
268	2.7168e-01	5.0809e-02	2.2296e-02	4.3488e-02	1.9192e+03
269	3.5698e-01	1.4049e-01	7.7783e-02	-1.7948e-01	1.2090e+03
270	3.1383e-02	2.3953e-01	1.0548e-02	-1.0773e-01	1.2968e+02
271	1.0343e-01	1.8880e-01	-9.6303e-03	-5.3552e-02	6.3655e+02
272	2.7524e-01	1.4829e-01	7.0620e-02	-7.5326e-02	1.0124e+03
273	2.5678e-02	1.7374e-01	-5.8991e-03	-9.7078e-02	8.1667e+02
274	4.0016e-01	6.5939e-03	2.5706e-01	-4.6248e-02	2.1430e+03
275	7.2972e-02	1.6536e-01	1.5012e-02	-6.3490e-02	9.2634e+02
276	6.0325e-01	1.3265e-02	3.6856e-01	-1.8177e-02	2.4244e+03
277	6.4303e-01	7.6506e-02	2.6809e-01	1.7542e-01	1.6003e+03
278	2.0183e-01	9.5650e-02	-4.2395e-03	8.7312e-02	1.4460e+03
279	3.3092e-01	2.1860e-01	1.1602e-01	-7.5496e-02	2.6940e+02
280	7.7696e-01	1.0006e-01	2.7331e-01	4.3216e-02	1.6327e+03
281	3.2362e-01	2.3212e-01	1.6246e-01	-7.1978e-02	1.6791e+02
282	1.7973e-01	2.3442e-01	9.5831e-02	-1.8683e-02	5.9853e+01
283	1.2649e-01	2.3878e-01	1.7640e-02	-1.0266e-01	1.4613e+01
284	5.7929e-01	2.2405e-01	5.7316e-03	-3.4640e-02	4.1477e+02
285	1.3099e-01	2.0700e-01	1.5909e-02	2.2446e-03	4.0860e+02
286	1.8562e-01	1.7703e-01	8.0900e-02	4.7835e-02	6.7869e+02
287	9.8916e-02	1.7817e-01	-3.2402e-02	-1.4762e-02	6.9417e+02
288	1.0855e+00	1.5912e-01	2.4035e-01	8.9629e-02	1.2192e+03
289	6.2819e-02	9.6751e-02	3.1651e-02	-5.3162e-02	1.5100e+03
290	4.7065e-01	3.8284e-02	3.2874e-01	-3.8894e-02	2.3396e+03
291	1.0795e-01	9.8753e-02	2.9350e-02	-1.6540e-02	1.4920e+03
292	7.1067e-01	3.5450e-02	2.5252e-01	4.2936e-02	2.1385e+03
293	1.5484e-01	2.4029e-01	5.7475e-02	-8.5565e-02	0.0000e+00
294	6.6883e-01	5.1534e-02	1.0048e-01	1.1719e-01	1.9524e+03
295	2.1128e-01	3.9379e-02	1.2243e-01	4.2489e-02	1.8013e+03
296	3.4116e-01	2.3975e-01	1.6597e-01	-5.4694e-02	0.0000e+00
297	4.3279e-01	2.2977e-01	1.4848e-01	-2.0650e-01	1.4954e+02
298	5.5341e-01	2.0817e-02	4.3296e-01	1.2444e-01	2.2283e+03
299	2.2871e-01	2.8817e-02	4.7157e-02	9.5779e-02	1.8171e+03
300	7.7326e-02	5.6197e-02	-1.3735e-02	-9.1819e-02	1.8418e+03
301	6.1351e-01	3.6622e-02	3.5579e-01	-9.2904e-02	2.2400e+03
302	4.0172e-01	1.2595e-01	3.5664e-02	-2.6270e-01	1.2298e+03
303	1.7219e-01	1.0573e-01	2.6294e-03	9.2372e-02	1.2995e+03
304	1.0284e+00	7.5707e-02	7.5998e-02	-1.2884e-02	1.9285e+03
305	3.0019e-01	1.5011e-01	6.8515e-02	-1.0342e-01	9.6915e+02
306	4.9093e-01	1.8645e-02	4.1267e-01	1.5126e-01	2.0943e+03
307	1.9066e+00	2.3286e-01	1.2434e-01	-2.3268e-01	4.3295e+02
308	4.1644e-01	8.6098e-03	3.2581e-01	-6.5001e-02	2.1691e+03
309	1.1695e-01	2.2528e-01	2.3635e-02	-8.9755e-02	3.4040e+02
310	7.4283e-01	1.2869e-01	2.2526e-01	-2.3627e-02	1.3105e+03
311	1.7508e-01	7.5502e-02	9.5822e-02	3.9004e-03	1.5948e+03
312	6.7047e-01	1.8255e-02	2.3860e-01	-7.6706e-02	2.1726e+03
313	1.1249e-02	1.9142e-01	-5.0927e-02	-7.7833e-02	6.7365e+02
314	8.2553e-02	2.3517e-01	2.3005e-02	-5.5193e-02	1.5649e+02
315	2.8286e-01	9.9035e-02	-4.4004e-04	-6.0558e-02	1.3983e+03
316	2.9074e-01	2.2234e-01	2.2210e-01	-1.2745e-01	8.0941e+01
317	1.3515e-01	1.2948e-01	-4.9778e-02	2.5711e-03	1.2423e+03
318	8.1515e-01	1.5500e-01	2.8912e-01	6.3799e-02	1.1731e+03
319	5.1595e-01	8.6588e-02	3.1989e-01	-4.4904e-03	1.6007e+03
320	1.4091e-02	9.5303e-02	-1.0433e-02	-7.7544e-02	1.5317e+03
321	2.4644e-01	2.3575e-01	2.8948e-01	-8.7304e-02	0.0000e+00
322	7.9343e-02	4.5017e-02	1.0909e-01	3.5801e-02	1.8375e+03
323	2.3523e-01	1.1079e-01	-5.2025e-03	1.0980e-02	1.3144e+03
324	5.6535e-01	-3.7028e-03	3.2771e-01	-1.3686e-01	2.2884e+03
325	2.5642e-02	1.7137e-01	-2.5177e-02	-5.7875e-02	8.5718e+02
326	1.6090e-01	2.0752e-01	6.1830e-02	-3.3199e-02	4.1174e+02
327	2.7071e-01	1.0255e-01	-6.0969e-02	-6.8482e-02	1.4406e+03
328	2.0350e-01	1.5921e-01	6.4705e-02	6.6153e-02	8.3153e+02
329	4.2265e-03	1.2702e-01	8.4403e-02	-6.1342e-02	1.1669e+03
330	1.9942e-01	4.6715e-02	3.4326e-02	-2.6351e-02	1.8010e+03
331	7.5143e-02	7.9152e-02	1.8986e-02	-6.4627e-02	1.6998e+03
332	1.7655e-01	3.3586e-02	8.2832e-02	3.7641e-02	1.8114e+03
333	4.9324e-02	8.6388e-02	-1.9012e-02	-1.1395e-01	1.5859e+03
334	1.9765e-02	1.1575e-01	5.5052e-04	-1.4223e-01	1.3269e+03
335	1.2019e-01	2.1531e-01	-2.8494e-02	-1.2648e-02	3.6211e+02
336	1.7137e-01	8.2630e-02	5.5692e-02	3.9188e-02	1.5141e+03
337	1.1453e-01	1.3312e-01	2.6310e-02	1.7344e-02	1.1382e+03
338	1.0055e+00	2.2067e-01	1.6202e-01	1.4726e-01	4.4398e+02
339	1.2260e-01	2.0120e-01	1.6627e-02	-8.7285e-03	4.7587e+02
340	2.8735e-01	6.1430e-02	-1.3538e-02	2.9967e-02	1.7866e+03
341	3.9419e-01	1.6368e-02	2.5127e-01	3.7892e-02	2.0632e+03
342	1.8113e+00	2.1568e-01	1.9515e-01	-1.1599e-01	6.2311e+02
343	6.1565e-01	2.1200e-02	1.2278e-01	-5.2275e-02	2.3072e+03
344	6.7745e-01	1.6025e-01	3.0342e-01	1.2924e-01	9.4900e+02
345	5.1377e-01	5.1320e-02	5.3559e-01	1.7946e-02	1.8795e+03
346	1.4933e+00	2.5134e-01	1.3157e-01	9.9708e-02	4.3112e+02
347	2.5381e-01	3.9688e-02	-4.4238e-02	3.3243e-02	1.8786e+03
348	2.8686e-01	1.8754e-01	2.3778e-01	-1.2531e-01	6.2225e+02
349	1.8590e-01	1.8810e-01	7.3661e-02	-3.6576e-02	5.9324e+02
350	1.9168e-01	1.2412e-02	1.8592e-01	2.1571e-02	1.9844e+03
351	2.5374e-01	3.9338e-02	-2.9851e-03	9.2606e-02	1.8449e+03
352	1.6978e+00	2.8201e-01	2.1225e-02	9.2412e-03	7.3876e+01
353	2.6813e-01	3.4763e-02	-1.0444e-02	-6.4485e-02	2.0127e+03
354	2.0219e-01	1.7217e-01	1.0356e-01	4.1513e-02	7.6166e+02
355	2.5569e-01	2.0117e-01	1.2225e-01	-5.5391e-02	4.9671e+02
356	3.7324e-01	4.6768e-02	1.4598e-01	-1.1701e-01	2.1704e+03
357	1.3668e-01	1.7519e-01	5.1754e-02	1.4786e-02	7.0112e+02
358	3.8716e-01	1.3276e-03	2.5238e-01	9.6614e-03	2.0561e+03
359	9.0030e-02	1.0681e-01	7.8455e-03	-3.8310e-02	1.3719e+03
360	1.7530e-01	3.5347e-02	4.0287e-02	-5.0892e-02	1.8518e+03
361	3.5495e-01	1.5825e-01	1.5334e-01	-1.6493e-01	9.3181e+02
362	1.0950e-01	1.5510e-01	-3.3754e-02	-9.0913e-02	9.7822e+02
363	6.2506e-01	1.3606e-01	2.1244e-01	1.6734e-01	1.1713e+03
364	2.6467e-01	5.8068e-02	8.0913e-03	-7.9956e-05	1.7892e+03
365	6.8750e-01	1.9063e-01	2.9615e-01	4.2220e-02	7.6336e+02
366	6.5172e-01	4.2516e-02	2.4987e-01	-3.0939e-02	1.9083e+03
367	4.3565e-01	2.4373e-01	1.5547e-01	-1.3816e-01	0.0000e+00
368	2.8610e-01	2.2868e-01	2.8704e-01	-4.3397e-02	1.4226e+02
369	1.0065e-01	8.5569e-02	1.2425e-02	-5.0178e-02	1.5258e+03
370	6.3878e-01	1.3256e-01	2.3288e-01	2.0081e-01	1.1622e+03
371	1.7232e-01	1.3524e-01	-7.3758e-02	4.2954e-02	1.1237e+03
372	7.4834e-01	2.0352e-01	2.1693e-01	-6.4143e-02	6.9880e+02
373	6.8434e-02	1.6649e-01	-5.8401e-02	-4.3649e-02	9.0908e+02
374	8.9910e-02	7.6569e-02	6.1474e-03	-1.0712e-01	1.5963e+03
375	5.3914e-01	1.8864e-01	-8.5297e-02	-1.7659e-01	6.8850e+02
376	8.8763e-01	2.1253e-01	2.5523e-01	7.6715e-02	5.2324e+02
377	1.2864e-01	1.4876e-01	2.9849e-04	9.2411e-02	9.4706e+02
378	2.8610e-01	2.1242e-01	2.5572e-01	-1.0402e-01	3.9896e+02
379	4.4405e-01	2.4256e-01	1.5051e-01	-2.1501e-01	6.6252e+01
380	2.4825e-01	6.5342e-02	3.6747e-02	1.4001e-01	1.7152e+03
381	1.0169e+00	2.1199e-01	1.9135e-01	1.5260e-01	6.2415e+02
382	9.3676e-01	9.8668e-02	1.3834e-01	1.0338e-01	1.8260e+03
383	6.2973e-01	3.8296e-02	3.3174e-01	-1.3555e-02	2.0396e+03
384	3.8358e-01	2.4060e-01	1.6437e-01	-9.2480e-02	8.0552e+01
385	1.0761e-01	3.3179e-02	1.2480e-01	-7.2956e-04	1.7537e+03
386	-1.9505e-03	1.7867e-02	2.0197e-02	-8.5383e-02	2.0706e+03
387	2.5003e-01	1.1372e-01	-1.5988e-02	3.3311e-02	1.3349e+03
388	1.5386e-01	1.6898e-01	5.4664e-02	-1.0405e-02	7.5695e+02
389	2.2750e-01	1.9421e-01	9.9050e-02	-3.9253e-02	5.8157e+02
390	7.3039e-02	1.4408e-01	2.4823e-02	-3.3497e-02	1.0898e+03
391	3.8039e-01	1.7765e-01	1.0723e-01	-1.1427e-01	7.0095e+02
392	2.4117e-02	1.1909e-01	-1.7588e-02	-3.3110e-02	1.2410e+03
393	2.6840e-01	2.3260e-01	2.5614e-01	-9.7492e-02	0.0000e+00
394	1.7701e-01	2.2166e-01	1.2025e-01	-1.1115e-01	2.7935e+02
395	8.0377e-01	1.6556e-01	2.9198e-01	-9.1214e-02	1.0146e+03
396	2.0346e-02	2.1661e-01	-2.8485e-02	-1.7623e-02	4.4217e+02
397	2.9423e-02	8.6300e-02	-9.7221e-02	-8.4992e-02	1.5381e+03
398	1.0600e-01	1.9320e-02	1.1335e-01	1.6636e-02	1.8551e+03
399	-8.7986e-04	5.5162e-02	1.0459e-01	-6.1910e-02	1.8097e+03
400	4.4736e-02	2.8157e-02	9.2327e-02	5.1169e-02	1.8288e+03
401	7.4646e-01	5.4717e-02	1.7577e-01	2.0178e-02	2.1476e+03
402	7.0373e-02	1.0337e-01	3.1711e-02	-4.8558e-02	1.4409e+03
403	6.1758e-02	1.3053e-01	3.4097e-02	-7.9803e-02	1.2098e+03
404	2.4172e-01	5.1647e-02	-4.6287e-02	6.0381e-02	1.7191e+03
405	1.9353e-01	2.3739e-01	1.5601e-01	-5.9830e-02	-1.1608e+01
406	5.5079e-02	3.8628e-02	4.5489e-02	1.5303e-03	1.9691e+03
407	4.3040e-01	6.6903e-04	1.9661e-01	4.6295e-02	2.0761e+03
408	4.1803e-01	9.3997e-02	7.7334e-02	-1.9666e-01	1.5717e+03
409	3.6636e-01	2.0820e-01	1.7938e-01	-7.0431e-02	4.3025e+02
410	4.8795e-01	1.5505e-02	4.6294e-01	2.4906e-02	2.1382e+03
411	4.0178e-01	1.3907e-01	7.6325e-02	-2.0552e-01	1.0985e+03
412	8.0618e-02	1.4293e-01	-2.6573e-02	2.0933e-02	1.1133e+03
413	2.3335e-02	1.0788e-03	5.2735e-02	-1.7058e-01	1.9850e+03
414	2.8002e-01	2.0779e-01	2.6704e-01	7.9863e-04	5.1768e+02
415	2.8451e-01	1.7180e-01	1.5878e-01	-2.6910e-03	7.3569e+02
416	1.8025e-01	1.8613e-01	-2.8029e-02	6.4434e-03	5.9796e+02
417	1.5592e-01	3.8584e-02	9.6504e-02	3.0374e-02	1.7307e+03
418	2.1746e-01	1.3036e-01	2.8382e-02	3.4143e-02	1.1326e+03
419	2.0961e-01	1.3528e-01	-2.8308e-02	-2.1857e-02	1.1202e+03
420	1.3559e-01	1.5854e-01	-1.6531e-02	-3.6386e-02	9.0949e+02
421	3.3183e-02	2.2138e-01	-8.5195e-03	8.0624e-03	3.7419e+02
422	8.0908e-01	2.0719e-01	2.0378e-01	-7.4277e-02	5.6164e+02
423	2.9724e-01	2.2911e-01	2.4506e-01	-8.2727e-02	1.4557e+02
424	1.7901e-01	7.2627e-02	-2.3127e-02	-3.3127e-02	1.6375e+03
425	3.1732e-01	3.4733e-04	2.5902e-01	1.8688e-01	2.1612e+03
426	3.6175e-01	4.1684e-03	1.7280e-01	-1.4151e-01	2.1256e+03
427	1.0301e-01	2.1491e-01	-1.6813e-02	-2.0552e-02	3.9704e+02
428	2.7716e-02	7.9539e-02	1.9318e-02	4.8014e-02	1.6163e+03
429	2.8854e-01	2.0795e-01	1.1517e-01	-6.6497e-02	3.9197e+02
430	9.4325e-01	3.9428e-02	1.2064e-01	-6.6599e-02	2.1922e+03
431	8.3080e-02	1.1484e-01	3.9654e-03	-1.5166e-02	1.3384e+03
432	3.1755e-01	2.3491e-01	2.7586e-01	-7.0200e-02	1.0047e+02
433	1.8664e-01	1.9850e-01	6.9331e-02	-6.8460e-02	4.6770e+02
434	2.5373e-01	7.0315e-02	-7.1617e-02	-4.7783e-03	1.7574e+03
435	5.1868e-01	1.3001e-01	1.9824e-01	-2.3134e-01	1.1524e+03
436	8.3984e-01	8.1016e-02	2.1826e-01	-3.9686e-02	2.0059e+03
437	1.7011e-01	1.5258e-01	4.9045e-02	2.1002e-02	9.3816e+02
438	2.2917e-01	1.4983e-01	2.3098e-02	4.5307e-02	9.6056e+02
439	2.0933e-01	2.2984e-01	1.5141e-01	-4.1313e-02	2.5498e+02
440	6.7631e-01	8.1984e-02	3.8238e-01	3.7029e-02	1.7182e+03
441	3.6284e-01	1.8535e-02	1.2043e-01	-8.8656e-02	2.1988e+03
442	5.7434e-01	4.1958e-02	3.6867e-01	2.1311e-01	1.9893e+03
443	1.6714e-01	6.6487e-02	-3.0500e-02	5.7885e-02	1.6398e+03
444	5.5516e-01	5.6848e-02	3.4798e-01	1.9505e-01	1.9725e+03
445	9.9944e-01	2.2199e-01	2.1221e-01	1.6983e-01	4.3250e+02
446	2.7904e-01	8.3891e-02	4.5811e-02	1.9288e-02	1.6914e+03
447	1.2805e-02	8.3910e-02	-8.0926e-02	-1.0503e-01	1.7023e+03
448	3.2857e-02	-6.2593e-03	-4.0688e-02	5.0843e-02	1.6705e+03
449	1.3501e-01	1.5256e-02	1.1226e-01	-1.1301e-01	1.8670e+03
450	9.8023e-03	2.0730e-01	-3.2098e-02	-5.4842e-03	5.0527e+02
451	4.7101e-02	2.3666e-01	1.2529e-02	-7.4537e-02	5.3451e+01
452	3.6658e-01	-4.1598e-03	2.3857e-01	5.2982e-02	1.9828e+03
453	1.1651e-01	4.8071e-02	1.0269e-01	-4.3650e-02	1.9203e+03
454	1.4616e-01	4.5583e-02	8.2310e-04	-6.4505e-02	1.8039e+03
455	9.2824e-02	1.5914e-01	-1.4320e-02	5.4404e-03	8.7952e+02
456	2.9326e-01	4.3774e-02	1.3056e-01	5.0331e-02	1.9325e+03
457	1.0843e-01	1.2632e-02	9.2139e-02	4.0710e-03	1.9540e+03
458	7.5163e-02	3.5511e-02	6.4881e-02	-4.9820e-02	1.9203e+03
459	1.6982e-02	3.0417e-02	7.4075e-03	-2.5171e-02	2.1740e+03
460	1.1897e-01	1.6726e-01	3.9784e-03	-4.7292e-02	7.5527e+02
461	2.0054e-01	2.3866e-01	1.6686e-01	-1.0844e-01	3.8772e+00
462	1.3295e-01	2.4145e-01	3.2636e-02	-1.6937e-01	0.0000e+00
463	1.1964e-02	1.2310e-01	3.7438e-02	-5.2959e-02	1.2826e+03
464	1.3571e-01	8.3186e-02	1.2132e-01	6.3465e-02	1.5274e+03
465	1.8740e-02	1.9935e-01	4.0538e-02	-9.8390e-02	5.9216e+02
466	8.4638e-02	1.6770e-01	-1.7047e-02	-4.3544e-02	8.3344e+02
467	2.3857e-01	2.0101e-01	1.0714e-01	3.4988e-02	4.3482e+02
468	1.2002e-02	7.1874e-03	8.4592e-02	3.1971e-02	2.2428e+03
469	2.8227e-01	1.1950e-01	2.5100e-02	-5.7063e-02	1.2240e+03
470	4.5693e-02	7.0377e-02	-4.4588e-02	1.5224e-02	1.7698e+03
471	3.1079e-01	1.0800e-02	-2.4269e-03	6.2543e-03	2.1288e+03
472	4.9436e-02	2.0614e-01	-4.1663e-04	-2.4780e-02	4.5990e+02
473	1.9317e-01	2.1996e-01	1.1719e-01	6.8590e-03	3.9660e+02
474	3.0887e-02	4.5354e-02	3.0111e-02	-1.9909e-02	1.8439e+03
475	2.9269e-02	2.0553e-01	-3.5545e-03	-4.0857e-02	5.5047e+02
476	6.0685e-01	6.5257e-02	3.8758e-01	8.3585e-02	1.9404e+03
477	3.1322e-01	9.9953e-02	9.8616e-02	5.6936e-02	1.4612e+03
478	2.0898e-01	2.2070e-01	1.3386e-01	-1.4118e-01	2.9475e+02
479	2.2261e-01	1.4840e-01	8.5159e-02	-1.7027e-03	9.7076e+02
480	3.6070e-01	2.0384e-01	1.5893e-01	-1.2913e-01	5.5770e+02
481	6.4354e-01	1.7439e-01	2.7627e-01	7.4224e-02	8.6527e+02
482	5.5169e-01	1.4725e-01	8.3657e-02	-1.1506e-01	1.0192e+03
483	9.3539e-02	4.8711e-02	8.1572e-02	-3.9981e-02	1.8322e+03
484	1.9661e-01	2.0791e-01	5.5553e-02	-1.1338e-01	4.1809e+02
485	1.1550e-01	6.4650e-02	6.4864e-02	1.8930e-02	1.6830e+03
486	3.6392e-01	1.8578e-01	5.5950e-02	-1.5635e-01	5.7880e+02
487	2.6137e-01	2.2900e-01	2.5454e-01	-1.3431e-01	1.9578e+02
488	3.1646e-01	1.8264e-01	1.8674e-01	-1.3586e-01	6.7395e+02
489	1.6767e-01	5.0015e-02	2.3272e-02	-1.9791e-02	1.7389e+03
490	6.0097e-02	1.0933e-01	3.7840e-02	-5.6439e-02	1.3836e+03
491	5.7796e-02	2.0905e-01	-6.2734e-02	-1.2204e-02	4.8358e+02
492	5.8427e-02	2.3380e-01	4.9885e-02	-4.4533e-02	5.8982e+01
493	2.9754e-01	1.9354e-01	1.4968e-01	-1.5514e-02	4.9680e+02
494	2.7803e-01	2.4550e-02	6.1762e-03	5.0609e-02	1.8407e+03
495	1.7170e-01	1.9524e-01	9.8801e-02	-5.2953e-03	4.9658e+02
496	7.6936e-01	1.6686e-01	2.4943e-01	5.7227e-02	9.4781e+02
497	1.2091e-01	1.3884e-01	8.5233e-02	-2.5782e-02	1.0423e+03
498	7.0751e-02	2.1042e-01	2.3892e-02	-7.3571e-02	4.7204e+02
499	2.1183e-01	2.7996e-02	1.8130e-01	2.8651e-02	1.7184e+03
500	6.0359e-01	1.7030e-01	1.6491e-01	1.4302e-01	9.5248e+02
501	1.6063e-01	8.8044e-02	7.0155e-02	1.4442e-02	1.4951e+03