variables="k","x","y","vx","vy","pressure"
zone i=8064 j=1
0	2.5833e-01	1.7609e-01	9.9993e-02	7.0272e-02	7.4191e+02
1	1.6302e-01	2.1894e-01	8.3984e-02	-1.0280e-02	3.3708e+02
2	4.6717e-02	1.6169e-01	-1.4974e-02	-9.7382e-02	9.0234e+02
3	4.0828e-01	2.7270e-04	1.9154e-01	1.8138e-02	1.8049e+03
4	1.5769e-02	2.1395e-01	3.3863e-02	-1.0626e-01	2.1678e+02
5	6.8029e-01	1.5475e-01	2.1567e-01	1.5734e-01	1.2388e+03
6	3.1296e-01	7.9291e-02	-1.7822e-02	-3.1158e-02	1.6163e+03
7	1.5516e-01	1.4961e-01	3.5728e-02	3.1068e-02	1.0284e+03
8	-2.6749e-03	2.4995e-02	3.4535e-02	-3.7349e-02	2.0918e+03
9	6.5541e-01	1.4210e-01	2.2624e-01	1.9654e-01	1.2969e+03
10	1.4185e-01	2.3372e-01	5.9808e-02	-1.0958e-01	0.0000e+00
11	2.8097e-01	1.7964e-01	1.1560e-01	1.2660e-03	6.3547e+02
12	4.9335e-01	1.7751e-01	-1.7922e-01	-1.6591e-01	5.5604e+02
13	4.9187e-01	1.1421e-01	8.5236e-02	-2.2719e-01	1.1720e+03
14	7.1347e-01	1.2895e-01	3.6190e-01	1.1683e-01	1.4616e+03
15	2.8893e-01	2.2858e-01	2.1095e-01	-1.0189e-01	0.0000e+00
16	3.4408e-01	1.9761e-01	2.1342e-01	-1.5831e-01	2.8800e+02
17	9.0809e-01	8.7934e-02	2.1937e-01	-2.1134e-03	2.1754e+03
18	1.0005e+00	1.3255e-01	3.4106e-01	1.1863e-01	1.7198e+03
19	6.4762e-02	1.8174e-01	-1.4204e-02	-2.1342e-04	7.1041e+02
20	2.6379e-01	2.3609e-01	2.3436e-01	-1.6335e-02	0.0000e+00
21	1.7741e-01	2.2714e-01	8.8765e-02	-5.6013e-02	0.0000e+00
22	1.3797e-01	5.1792e-02	1.2539e-01	2.8849e-02	1.8370e+03
23	2.0557e-01	1.0222e-01	3.0740e-02	4.0549e-02	1.4284e+03
24	7.7814e-01	1.5971e-01	2.6798e-01	-4.4320e-03	1.1623e+03
25	-1.1675e-03	1.1358e-01	9.5117e-02	1.4114e-02	1.3929e+03
26	1.1254e-01	6.5844e-02	1.0078e-01	1.4402e-03	1.6857e+03
27	1.2781e-01	1.0239e-01	-2.1263e-02	-4.1605e-02	1.4078e+03
28	3.9090e-01	9.1610e-03	8.5480e-02	-7.1166e-02	1.8711e+03
29	3.0921e-01	1.1167e-01	-3.8458e-02	3.7982e-02	1.2521e+03
30	-1.5160e-03	7.2687e-02	3.7299e-01	-5.6911e-02	1.7412e+03
31	1.6848e-01	8.9478e-02	8.2492e-02	6.9551e-02	1.4801e+03
32	2.7376e-01	1.1335e-01	-1.4916e-02	6.3621e-02	1.2818e+03
33	6.5538e-01	2.4576e-01	1.2887e-01	-1.2290e-01	1.5504e+01
34	9.6083e-01	5.7734e-02	1.4335e-01	8.0377e-03	2.3272e+03
35	9.3436e-01	2.2410e-01	1.7619e-01	1.8174e-02	4.4141e+02
36	4.2819e-01	1.7710e-01	1.1767e-01	-2.2806e-01	4.8243e+02
37	9.5804e-01	1.5140e-01	3.9838e-01	5.2017e-02	1.5032e+03
38	8.3472e-01	1.8030e-01	2.5035e-01	-6.7106e-02	1.0586e+03
39	9.1520e-01	9.8219e-02	1.9387e-01	7.0057e-02	1.9318e+03
40	2.2608e-01	1.8226e-01	1.6182e-01	-5.7043e-03	5.9860e+02
41	1.7972e-01	1.2219e-01	-7.2368e-02	6.9545e-02	1.2236e+03
42	2.3291e-01	5.2770e-02	-5.9591e-02	-1.4624e-02	1.7454e+03
43	8.9117e-01	9.7944e-02	2.9662e-01	-2.4394e-02	2.0421e+03
44	2.3752e-01	1.6755e-01	1.4743e-01	2.5451e-02	8.0719e+02
45	1.0122e+00	1.3807e-01	3.2248e-01	1.4051e-01	1.7134e+03
46	2.1159e-01	2.2806e-01	1.1974e-01	-5.5928e-02	-4.6847e+01
47	2.5710e-01	1.5930e-01	2.2109e-01	6.4641e-02	7.2412e+02
48	7.3974e-02	1.9452e-01	-6.1906e-02	-7.3367e-02	5.4074e+02
49	2.4459e-01	2.1157e-01	1.6687e-01	-3.1908e-02	4.8086e+02
50	9.6822e-01	1.6133e-01	3.0286e-01	7.5352e-02	1.4439e+03
51	1.2953e-01	2.3117e-01	-2.8943e-03	-1.2604e-01	3.3721e+02
52	1.8888e-01	6.2986e-02	6.7941e-03	2.5147e-02	1.6866e+03
53	1.3402e-03	1.6130e-01	-2.3737e-02	-5.7412e-02	9.3282e+02
54	2.6124e-01	1.3804e-01	9.0876e-02	1.4415e-02	1.0155e+03
55	4.2987e-01	8.6929e-02	3.5661e-02	-1.4083e-01	1.3840e+03
56	6.1921e-01	2.1695e-01	5.1777e-02	-2.1877e-02	4.3816e+02
57	2.8398e-01	1.9790e-01	2.0728e-01	-3.5828e-03	4.1964e+02
58	1.0758e+00	2.4124e-01	2.6280e-01	2.0027e-01	3.9387e+02
59	4.9564e-01	2.2919e-01	5.5318e-02	-8.9239e-02	1.6590e+02
60	3.7439e-02	1.8748e-01	-3.5954e-02	-5.5289e-02	6.1267e+02
61	1.0356e+00	1.9513e-01	3.0937e-01	2.2387e-01	8.8063e+02
62	9.4708e-01	8.4761e-02	1.6919e-01	7.2645e-02	2.1839e+03
63	2.9753e-01	6.8638e-02	-5.0174e-02	7.5762e-02	1.6988e+03
64	2.5478e-01	-8.9260e-03	-2.7179e-01	1.2676e-02	1.5304e+03
65	-4.8137e-03	8.5025e-04	-1.1168e-01	1.1008e-01	2.0054e+03
66	2.8213e-02	-6.6339e-03	-7.2047e-02	1.6751e-01	1.6549e+03
67	1.6128e-01	1.9029e-01	-8.9226e-03	3.7337e-03	4.9651e+02
68	4.7030e-02	2.1402e-02	-1.3491e-02	-1.0071e-01	2.0385e+03
69	9.5839e-02	1.1368e-01	3.8454e-02	-7.7387e-02	1.2970e+03
70	1.4874e-02	1.4706e-01	-1.9553e-03	-2.2883e-02	1.0490e+03
71	5.8253e-01	-1.6250e-04	2.1885e-01	7.0389e-02	2.2947e+03
72	4.9103e-01	1.2750e-01	1.3464e-01	-2.8153e-01	1.0701e+03
73	2.3348e-01	2.1758e-03	7.9712e-02	-1.3186e-02	1.9201e+03
74	2.8323e-01	7.1841e-02	-2.6819e-02	-3.0879e-02	1.6562e+03
75	1.0532e+00	2.0996e-01	2.5388e-01	1.3558e-01	8.2472e+02
76	4.9793e-01	4.4351e-03	3.8907e-01	-7.1607e-03	2.0805e+03
77	3.4096e-01	1.2964e-01	2.0533e-02	-8.1058e-02	1.0362e+03
78	2.6913e-01	1.8566e-01	1.6695e-01	-6.2246e-02	5.4847e+02
79	1.2018e-01	1.6815e-01	4.0695e-02	-1.9832e-02	8.0824e+02
80	3.9213e-01	1.7544e-01	1.0014e-01	-9.6635e-02	5.7799e+02
81	5.3822e-01	1.2281e-01	2.2922e-01	-1.8510e-01	1.0053e+03
82	2.4889e-01	8.5752e-02	-1.8572e-02	6.8400e-02	1.6602e+03
83	1.0396e+00	1.2634e-01	2.8238e-01	1.0461e-01	1.9288e+03
84	1.3448e-01	2.0213e-01	-1.5614e-03	-3.2321e-02	4.4860e+02
85	9.9706e-01	2.2350e-01	1.5994e-01	-9.3607e-02	5.1483e+02
86	1.2946e-01	1.8424e-01	1.9974e-02	-7.7931e-03	6.1121e+02
87	1.5534e-01	1.7893e-01	3.5747e-02	-2.4887e-02	7.2202e+02
88	2.1975e-01	1.2192e-01	-3.7370e-02	1.0229e-01	1.3010e+03
89	7.1855e-01	5.0538e-02	1.8713e-01	-5.9636e-02	2.1278e+03
90	8.6886e-01	2.0203e-01	2.5845e-01	-2.0533e-02	8.6861e+02
91	2.4787e-01	2.2615e-01	2.2004e-01	-8.5961e-02	-1.9451e+01
92	3.4754e-01	7.5979e-02	-2.2164e-02	-5.5968e-02	1.6313e+03
93	2.1973e-01	1.9536e-01	5.6638e-02	3.7558e-02	4.6030e+02
94	9.4280e-01	1.3914e-01	3.0850e-01	1.8803e-01	1.6289e+03
95	8.4280e-02	7.2511e-02	2.5782e-02	-5.2717e-03	1.7482e+03
96	1.0844e+00	8.5806e-02	1.3798e-01	1.4948e-02	1.9246e+03
97	2.5173e-01	9.7268e-02	-1.0003e-01	9.4313e-02	1.4941e+03
98	4.2997e-01	1.2724e-01	2.2985e-02	-4.9756e-02	9.8327e+02
99	8.9363e-01	1.9091e-01	1.8384e-01	-1.2619e-02	1.0659e+03
100	3.9155e-01	2.2917e-01	1.7422e-01	-8.4793e-02	5.5039e+01
101	2.6014e-01	2.0596e-01	2.2953e-01	-2.3007e-02	4.0385e+02
102	9.5832e-01	2.3771e-01	3.8256e-01	8.4122e-02	3.1152e+02
103	1.2264e+00	2.0287e-01	8.5412e-02	4.3992e-02	8.5862e+02
104	4.7401e-02	2.2733e-01	3.9981e-02	-6.2812e-02	1.2663e+02
105	6.4145e-01	2.3374e-02	1.8709e-01	5.1921e-02	2.3037e+03
106	2.5771e-01	8.4611e-02	-5.6940e-02	7.0594e-02	1.5722e+03
107	5.6201e-01	1.6544e-01	-8.8642e-02	-8.0773e-02	7.9063e+02
108	2.7687e-01	1.9220e-01	1.1173e-01	7.3858e-02	5.1894e+02
109	9.1270e-01	1.3147e-01	3.3564e-01	6.2037e-02	1.7311e+03
110	1.1590e+00	1.8319e-01	2.6627e-01	6.3723e-02	9.4299e+02
111	1.0606e+00	2.5059e-01	1.9657e-01	1.1143e-01	3.7119e+02
112	1.9418e-01	1.6482e-01	4.7215e-02	1.5385e-02	7.8009e+02
113	1.4496e-01	1.8347e-01	4.7482e-02	-1.6125e-02	6.0257e+02
114	2.7498e-01	2.1922e-01	2.4211e-01	-2.0326e-02	2.3867e+02
115	3.0809e+00	2.8212e-03	1.3274e-01	5.4831e-02	2.1058e+03
116	8.7920e-01	2.4811e-01	3.1161e-01	4.1029e-03	2.4899e+02
117	1.0085e+00	1.0534e-01	2.9872e-01	1.7264e-01	2.0482e+03
118	4.7794e-01	6.5287e-02	2.8737e-01	-1.0917e-01	1.6695e+03
119	3.1613e-01	1.8579e-01	1.5555e-01	-7.8560e-02	5.4140e+02
120	1.0231e+00	2.0952e-01	2.9283e-01	2.6808e-01	8.2835e+02
121	2.7632e-01	1.5105e-01	1.3015e-01	3.2863e-03	9.2128e+02
122	1.9815e-01	2.3126e-01	7.8589e-02	-9.6422e-04	0.0000e+00
123	3.7406e-01	1.5473e-01	-8.5277e-03	-9.3034e-02	7.5989e+02
124	1.9130e-01	1.1053e-01	5.7261e-02	5.9703e-02	1.3144e+03
125	7.5004e-01	4.8221e-02	1.7732e-01	-2.8104e-02	2.2407e+03
126	3.3029e-01	1.8907e-01	1.9184e-01	-1.6734e-01	4.6596e+02
127	6.2747e-01	2.4296e-01	1.3732e-01	-1.7934e-01	-3.0343e+00
128	2.3211e-01	8.1359e-02	-9.1834e-02	-1.4384e-02	1.5648e+03
129	-2.0818e-03	6.0650e-02	1.0845e-01	4.0789e-02	1.7054e+03
130	9.2306e-01	1.8855e-01	2.2190e-01	-2.7485e-02	1.1064e+03
131	3.8614e-01	2.2639e-01	1.8418e-01	-9.8143e-02	6.7802e+01
132	1.7810e-01	1.2065e-02	-1.2033e-02	-2.7061e-02	1.9370e+03
133	3.1108e-01	-4.7512e-04	7.7718e-02	-1.9977e-01	1.9390e+03
134	2.0581e-02	6.6471e-02	8.9820e-03	4.2943e-02	1.7925e+03
135	4.7660e-02	1.7134e-01	2.6012e-02	-1.6591e-02	7.8049e+02
136	1.0928e-01	2.2511e-01	2.6562e-02	2.3793e-02	1.7266e+02
137	2.4185e-01	2.2484e-01	1.6418e-01	-8.8446e-02	-1.0492e+01
138	6.2321e-01	1.9580e-01	6.5813e-02	7.4571e-02	6.8890e+02
139	3.0324e-01	1.7911e-01	7.9119e-02	-3.6856e-02	5.8008e+02
140	2.5984e-01	1.7564e-01	7.2315e-02	-1.6533e-02	7.5160e+02
141	2.9648e-01	1.2333e-02	3.2265e-03	-1.1477e-02	1.9407e+03
142	1.2042e-02	2.2756e-01	6.1552e-03	-2.9942e-02	5.4737e+01
143	1.5206e-01	9.7019e-02	8.5043e-02	-5.8464e-03	1.4361e+03
144	3.5101e-01	1.3094e-01	8.8142e-02	-6.2730e-02	1.0521e+03
145	3.7591e-01	2.1725e-01	1.2366e-01	-4.0683e-02	3.1294e+02
146	9.0039e-01	1.6589e-01	2.6507e-01	-1.3913e-02	1.3846e+03
147	1.0294e-01	1.6496e-01	2.2920e-02	-3.4631e-02	8.4126e+02
148	1.4146e+00	2.2885e-01	-3.3048e-02	-4.4936e-03	6.7562e+02
149	6.7964e-01	1.3075e-01	2.8935e-01	1.0898e-01	1.4451e+03
150	6.6673e-01	1.8837e-02	1.6925e-01	5.7835e-02	2.2936e+03
151	2.2709e-01	2.2752e-01	2.1473e-01	-4.1087e-02	6.6748e+01
152	2.5280e-01	1.0851e-01	-4.8006e-02	7.3606e-02	1.2699e+03
153	5.9175e-01	2.0575e-02	1.7977e-01	1.5380e-01	2.2022e+03
154	4.3917e-01	1.3510e-02	2.6481e-01	9.8779e-03	2.0863e+03
155	5.0920e-02	8.9406e-02	-1.0545e-02	-1.0828e-01	1.5917e+03
156	6.3774e-01	1.6448e-01	1.1516e-01	3.1033e-02	9.3688e+02
157	3.3364e-01	1.9868e-01	1.8290e-01	-1.1558e-01	2.6047e+02
158	1.0908e+00	2.1253e-01	2.4822e-01	2.0985e-01	6.8506e+02
159	3.1191e-01	1.5391e-02	4.7726e-02	-1.6717e-02	1.9318e+03
160	7.1421e-01	6.8265e-03	2.0867e-01	-6.9221e-02	2.5087e+03
161	1.0434e+00	1.3968e-01	3.3999e-01	4.0252e-02	1.4755e+03
162	1.8768e-01	8.8652e-02	-4.0822e-02	9.0882e-02	1.4533e+03
163	3.3358e-01	2.2767e-01	1.4452e-01	-1.1608e-02	3.8418e+01
164	5.7291e-01	2.0027e-02	4.2361e-01	1.1440e-01	1.9368e+03
165	2.5705e-01	1.9099e-01	1.1099e-01	2.5616e-02	4.9937e+02
166	3.9577e-01	9.7089e-02	-2.1135e-02	-2.1568e-01	1.3499e+03
167	2.5051e-01	1.6993e-01	1.4744e-01	5.3269e-02	7.1354e+02
168	2.0821e-01	3.7088e-02	1.3388e-01	-4.8644e-02	1.8322e+03
169	2.0982e-01	1.3076e-01	1.8142e-02	6.9798e-02	1.1897e+03
170	3.4685e-02	5.8064e-02	-6.8641e-02	-1.4431e-01	1.7733e+03
171	5.9816e-01	1.4214e-01	5.3266e-02	1.3229e-01	1.1039e+03
172	3.3483e-01	1.3717e-01	1.2688e-01	-1.7234e-02	9.6720e+02
173	1.8003e-01	1.8188e-01	2.0296e-02	6.4444e-02	6.5876e+02
174	4.7274e-01	1.5635e-02	3.2922e-01	3.9634e-02	1.8566e+03
175	6.2813e-01	2.3917e-02	1.3921e-01	5.9188e-02	2.1420e+03
176	1.1550e+00	2.0844e-01	2.0104e-01	1.2570e-01	7.0952e+02
177	1.8706e-03	2.1231e-01	-6.0337e-02	-4.8027e-02	4.6868e+02
178	3.5160e-01	2.5686e-02	5.4125e-02	-4.7615e-02	1.9437e+03
179	7.1363e-01	2.4261e-01	2.7991e-01	4.7378e-02	7.0849e+01
180	3.5286e-01	1.9395e-01	2.0126e-01	-1.4756e-01	4.2850e+02
181	3.3812e-01	3.9371e-02	-3.3630e-02	-8.8797e-02	2.0048e+03
182	8.7949e-02	1.7580e-01	4.1769e-02	-2.4238e-02	7.8600e+02
183	5.7460e-02	1.9670e-01	-3.1296e-02	-4.0426e-02	5.5363e+02
184	8.3896e-01	1.8903e-01	2.9682e-01	-6.2751e-02	8.9627e+02
185	3.7152e-01	1.9961e-01	2.3057e-01	-5.1719e-02	4.2173e+02
186	1.0150e+00	1.0750e-01	2.3841e-01	1.2861e-01	2.0905e+03
187	3.4376e-01	1.5095e-01	7.1368e-02	-1.5784e-01	8.8232e+02
188	3.4850e-01	9.9763e-02	-1.2143e-01	-2.0426e-01	1.2909e+03
189	9.6293e-01	1.9135e-01	2.3966e-01	1.1196e-02	9.9603e+02
190	6.9975e-01	8.0649e-02	2.3635e-01	-8.6626e-03	1.8310e+03
191	7.1717e-01	4.2889e-02	1.9949e-01	-2.3704e-03	2.1864e+03
192	2.0713e-02	1.7709e-01	-5.1840e-02	-7.5088e-02	7.3933e+02
193	4.6346e-02	1.0728e-01	9.7528e-03	-4.1334e-02	1.4355e+03
194	8.8749e-02	2.0813e-01	8.2121e-03	-4.7908e-02	4.0567e+02
195	2.1780e-01	2.4638e-03	4.0206e-02	-8.9743e-02	1.8765e+03
196	-2.7899e-03	3.9256e-02	2.1560e-01	2.0282e-02	2.0319e+03
197	3.2925e-02	2.2820e-01	-3.3242e-02	-2.5480e-02	1.0671e+02
198	9.6603e-02	1.5443e-01	-1.9419e-02	-3.2685e-02	9.6385e+02
199	2.3837e-01	6.5666e-02	1.4277e-03	7.9929e-02	1.7241e+03
200	8.8817e-03	1.0631e-01	-4.1031e-03	-3.3137e-03	1.4862e+03
201	4.0184e-03	1.2875e-01	-6.2831e-02	-4.0625e-02	1.3157e+03
202	1.3476e-01	1.0702e-01	8.9854e-03	-2.5667e-02	1.3752e+03
203	1.3717e-01	4.0254e-02	8.3601e-03	-4.3756e-02	1.9752e+03
204	1.3279e-01	1.1376e-01	-9.2654e-03	-3.0545e-02	1.3365e+03
205	3.5126e-01	1.9658e-01	1.6248e-01	-4.8845e-02	3.7801e+02
206	3.5459e-01	2.2765e-01	7.6020e-02	-6.3916e-02	3.1344e+01
207	9.0154e-02	7.6159e-02	9.4659e-03	-9.4860e-02	1.7056e+03
208	5.6771e-02	1.6812e-01	-4.5947e-02	-7.3121e-02	7.9804e+02
209	1.2236e-01	1.5720e-01	-4.8592e-02	1.2445e-02	8.7893e+02
210	6.7195e-01	1.0236e-01	2.7308e-01	-1.3922e-02	1.5411e+03
211	3.0175e-01	1.9054e-01	2.2663e-01	-1.0510e-01	5.2216e+02
212	9.3260e-02	2.3250e-01	-5.6573e-02	-5.3395e-02	0.0000e+00
213	1.5214e-01	1.9004e-02	6.3354e-02	-8.8966e-02	1.9651e+03
214	1.2702e-02	2.3885e-01	-9.8168e-03	-8.1442e-02	0.0000e+00
215	1.7871e-01	1.4647e-01	-1.6108e-02	2.9078e-02	1.0652e+03
216	9.3585e-01	2.5830e-01	3.7579e-01	5.0807e-04	1.3358e+02
217	1.2117e-01	1.4342e-01	-2.1430e-03	1.2529e-02	1.0423e+03
218	2.6599e-01	1.2686e-01	3.7896e-02	-1.7732e-02	1.1366e+03
219	7.1584e-01	6.4269e-02	2.0511e-01	9.0193e-02	2.0666e+03
220	3.0082e-01	4.2602e-02	-2.7639e-02	1.1186e-01	1.7910e+03
221	5.3310e-01	2.1358e-01	-3.8016e-02	-1.8129e-01	2.8914e+02
222	9.4694e-02	2.1127e-01	1.7291e-02	-7.3447e-02	3.7062e+02
223	3.7212e-01	5.6535e-02	1.2934e-01	-1.6953e-01	1.7861e+03
224	4.0749e-01	1.2969e-02	2.1713e-01	3.1939e-02	1.8444e+03
225	6.6517e-01	2.4960e-01	2.1251e-01	-1.0202e-01	6.8767e+01
226	9.9920e-02	1.6716e-01	-7.8058e-02	-3.9599e-02	8.1738e+02
227	1.0552e+00	2.0444e-01	2.6584e-01	2.6596e-01	8.8920e+02
228	7.1186e-01	1.0468e-01	1.9265e-01	4.5401e-02	1.6364e+03
229	3.5307e-01	2.1065e-01	1.2466e-01	-5.8494e-02	2.9095e+02
230	2.0206e-01	1.5711e-01	9.7079e-02	4.3644e-02	8.8126e+02
231	1.3636e-01	1.4750e-01	-2.7949e-02	4.7923e-02	1.0033e+03
232	1.6749e-01	1.5828e-01	1.2858e-02	-9.3682e-03	8.3733e+02
233	6.9381e-01	1.2601e-01	2.1178e-01	1.1755e-01	1.3967e+03
234	9.7041e-01	1.2776e-01	2.8958e-01	6.1060e-02	1.7309e+03
235	5.5726e-01	1.7313e-01	-2.1641e-03	-8.0467e-02	7.1172e+02
236	3.1632e-01	8.2624e-02	-9.3754e-02	-5.7687e-02	1.5668e+03
237	6.2710e-01	5.2934e-02	2.1470e-01	6.5381e-02	1.9350e+03
238	8.6673e-02	5.1637e-03	1.4472e-03	8.2125e-02	1.8201e+03
239	8.8833e-01	2.2546e-01	2.3292e-01	-2.7812e-02	4.6054e+02
240	4.8727e-01	5.3914e-02	1.9869e-01	-3.1849e-02	1.8220e+03
241	4.0805e-01	1.5732e-01	8.2040e-02	-1.5675e-01	7.0646e+02
242	9.3037e-01	2.2524e-01	2.0951e-01	-5.2603e-02	5.1043e+02
243	9.2137e-01	2.6397e-02	1.3524e-01	-5.9228e-02	2.4770e+03
244	2.1929e-01	1.5598e-01	1.2284e-02	-3.1556e-03	9.0411e+02
245	1.1424e-01	2.2999e-01	4.0003e-02	-9.4300e-02	0.0000e+00
246	3.3532e-01	1.5455e-01	5.8899e-02	-1.1239e-01	9.0040e+02
247	7.8401e-01	1.6116e-01	1.9721e-01	-5.8066e-02	1.1502e+03
248	1.0834e+00	2.0422e-01	3.0075e-01	1.7152e-01	8.4988e+02
249	2.5819e-01	3.4639e-02	1.1392e-01	9.6075e-02	1.7668e+03
250	1.1900e-01	7.4725e-02	7.5852e-02	7.5951e-02	1.6405e+03
251	2.7976e-01	1.2828e-01	-1.0336e-02	5.0039e-02	1.0413e+03
252	1.1007e+00	2.6539e-01	2.6674e-01	1.6552e-01	5.5979e+01
253	8.2131e-02	1.8804e-01	3.3613e-02	-3.2955e-02	6.0745e+02
254	3.9100e-01	7.1858e-02	9.0693e-02	-6.0690e-02	1.6561e+03
255	4.0733e-01	7.1361e-02	1.2482e-01	-1.4997e-01	1.6069e+03
256	2.4628e-01	1.8764e-01	1.6282e-01	1.9902e-02	5.3140e+02
257	8.2702e-02	2.3086e-02	-4.9256e-02	-2.2008e-02	1.9206e+03
258	2.0105e-01	1.1606e-01	-1.6688e-02	1.1388e-01	1.2760e+03
259	1.3647e-02	1.5871e-01	-2.7411e-02	-7.3490e-02	8.7973e+02
260	2.0496e-01	2.1573e-01	7.1811e-02	-3.3650e-02	3.7223e+02
261	6.7862e-02	7.7768e-02	1.6070e-02	-3.1994e-02	1.6693e+03
262	4.1049e-01	2.2728e-01	1.3784e-01	-5.4006e-02	5.0011e+01
263	2.4182e-01	9.8098e-02	-7.7067e-02	4.1619e-02	1.5599e+03
264	4.8758e-02	1.3100e-01	6.3469e-02	-7.3747e-02	1.2140e+03
265	1.2023e-02	2.2568e-01	1.7542e-02	-5.5251e-02	1.4185e+02
266	6.3428e-02	2.3041e-01	-4.8170e-03	-3.8919e-02	5.9706e+01
267	4.5286e-03	8.2752e-02	-5.6758e-02	-4.1305e-02	1.7335e+03
268	2.7359e-01	5.3287e-02	2.8804e-02	3.1403e-02	1.8021e+03
269	3.6933e-01	1.2385e-01	1.3404e-01	-1.4918e-01	1.1775e+03
270	3.0508e-02	2.3083e-01	-2.0794e-02	-4.2925e-02	0.0000e+00
271	1.0335e-01	1.8068e-01	2.4827e-02	-5.6614e-02	6.9269e+02
272	2.7932e-01	1.4556e-01	4.2270e-02	-1.1972e-02	9.4939e+02
273	2.7750e-02	1.6497e-01	4.3220e-02	-7.5430e-02	8.1882e+02
274	4.2851e-01	2.8103e-04	2.1341e-01	2.4420e-01	2.0502e+03
275	7.2743e-02	1.5837e-01	-4.4525e-02	-5.1938e-02	9.3466e+02
276	6.3249e-01	1.7391e-02	2.8289e-01	-1.0523e-03	2.3620e+03
277	6.8059e-01	9.4307e-02	3.2541e-01	1.3980e-01	1.8427e+03
278	1.9990e-01	1.0176e-01	-5.0069e-02	3.0490e-02	1.4240e+03
279	3.4290e-01	2.1208e-01	8.8731e-02	-4.1507e-02	3.6011e+02
280	8.1371e-01	1.0342e-01	2.9300e-01	2.6593e-02	1.9370e+03
281	3.3937e-01	2.2527e-01	1.1670e-01	-2.1568e-02	7.5819e+01
282	1.9301e-01	2.3048e-01	1.2665e-01	-5.1091e-02	3.6394e+01
283	1.2778e-01	2.3056e-01	-1.2877e-02	-4.3382e-02	-8.8168e+00
284	5.7536e-01	2.1314e-01	-9.5532e-02	-1.7064e-01	3.6322e+02
285	1.3336e-01	2.1204e-01	3.0498e-02	4.4998e-02	4.3748e+02
286	1.9240e-01	1.7970e-01	2.4736e-02	1.2253e-02	6.4859e+02
287	9.2768e-02	1.7606e-01	-6.6977e-02	-1.6232e-02	7.5397e+02
288	1.1054e+00	1.6670e-01	1.3736e-01	7.6043e-02	1.1094e+03
289	6.7597e-02	9.1177e-02	2.8950e-02	-4.7101e-02	1.5380e+03
290	5.1732e-01	3.0410e-02	3.9921e-01	-2.8755e-02	2.0997e+03
291	1.1351e-01	9.8629e-02	3.1644e-02	3.2984e-03	1.4289e+03
292	7.3483e-01	4.5992e-02	1.8757e-01	7.0194e-02	2.2707e+03
293	1.6146e-01	2.2870e-01	7.0042e-02	-7.3767e-02	-5.0478e+01
294	6.8987e-01	6.3388e-02	1.8496e-01	1.0606e-01	1.9274e+03
295	2.2439e-01	4.2486e-02	6.5451e-02	1.0523e-02	1.7815e+03
296	3.6207e-01	2.3028e-01	1.6660e-01	-9.2244e-02	9.5679e+01
297	4.4388e-01	2.0542e-01	4.1233e-02	-1.7773e-01	3.4264e+02
298	5.9752e-01	3.5286e-02	4.2182e-01	7.2358e-02	1.9633e+03
299	2.3739e-01	3.6911e-02	1.1117e-01	1.6303e-02	1.7980e+03
300	7.9060e-02	4.3942e-02	8.0449e-02	-7.8585e-02	1.9953e+03
301	6.5635e-01	3.3303e-02	3.2209e-01	5.3350e-02	2.2997e+03
302	4.0203e-01	1.0210e-01	-2.3321e-03	-1.5612e-01	1.3075e+03
303	1.7302e-01	1.1385e-01	3.9856e-02	8.6238e-02	1.3003e+03
304	1.0374e+00	6.9628e-02	7.8191e-02	-1.1114e-02	2.3155e+03
305	3.0817e-01	1.4139e-01	8.4786e-02	-2.8008e-02	9.4253e+02
306	5.4767e-01	3.2484e-02	5.3602e-01	1.0345e-01	2.0405e+03
307	1.9185e+00	1.9789e-01	7.0227e-02	-3.7515e-01	5.7198e+02
308	4.5628e-01	1.2257e-02	3.1025e-01	8.3004e-02	1.8742e+03
309	1.2116e-01	2.1597e-01	2.8210e-02	-4.0553e-02	3.0884e+02
310	7.7050e-01	1.2606e-01	2.6196e-01	-3.9302e-02	1.5037e+03
311	1.8573e-01	7.7307e-02	7.0942e-02	-3.1825e-02	1.6617e+03
312	6.9418e-01	1.2969e-02	2.4247e-01	1.5855e-01	2.3741e+03
313	5.6719e-03	1.8127e-01	-1.7134e-02	-8.9050e-02	7.0743e+02
314	8.5362e-02	2.3216e-01	3.3925e-02	-1.3981e-03	0.0000e+00
315	2.8636e-01	9.6647e-02	3.3501e-02	3.5888e-02	1.4375e+03
316	3.1758e-01	2.0687e-01	1.8198e-01	-1.4027e-01	2.5340e+02
317	1.3027e-01	1.2494e-01	-2.2860e-02	-3.9506e-02	1.1972e+03
318	8.5007e-01	1.6129e-01	2.9508e-01	2.4367e-02	1.2075e+03
319	5.5298e-01	8.3071e-02	2.7169e-01	1.4780e-03	1.5930e+03
320	1.2189e-02	8.6894e-02	-1.1216e-02	-7.8513e-02	1.6675e+03
321	2.8097e-01	2.3042e-01	2.9614e-01	-1.0370e-02	4.3189e+01
322	9.4661e-02	4.6722e-02	1.1921e-01	5.8088e-03	1.8719e+03
323	2.3548e-01	1.1095e-01	-5.0509e-03	-2.1608e-04	1.3254e+03
324	5.9521e-01	-3.8630e-03	2.2980e-01	-1.3703e-01	2.5595e+03
325	2.5019e-02	1.6431e-01	3.0736e-03	-8.0316e-02	8.2439e+02
326	1.7306e-01	2.0488e-01	1.4442e-01	-1.4853e-02	4.0781e+02
327	2.6294e-01	1.0252e-01	-2.2097e-02	1.0617e-02	1.3892e+03
328	2.0671e-01	1.6593e-01	2.8578e-02	3.7267e-02	8.0875e+02
329	9.5593e-03	1.2305e-01	6.7644e-02	-3.2117e-02	1.3550e+03
330	2.0486e-01	4.4092e-02	5.1819e-02	-1.1807e-02	1.7110e+03
331	7.5951e-02	7.1208e-02	1.4001e-02	-6.8105e-02	1.7539e+03
332	1.8857e-01	3.4920e-02	1.2096e-01	2.4915e-02	1.9269e+03
333	4.7278e-02	7.1232e-02	-2.1576e-02	-1.2503e-01	1.7160e+03
334	1.5994e-02	1.0278e-01	-6.5789e-02	-7.7339e-02	1.5179e+03
335	1.1856e-01	2.1072e-01	-2.4487e-02	-6.2406e-02	3.3025e+02
336	1.7797e-01	8.8054e-02	6.1373e-02	2.8975e-02	1.5338e+03
337	1.1719e-01	1.3214e-01	3.0817e-02	1.5838e-03	1.1745e+03
338	1.0277e+00	2.4101e-01	1.7738e-01	1.8289e-01	3.8998e+02
339	1.2132e-01	1.9927e-01	-3.0097e-02	-1.9867e-03	4.5322e+02
340	2.8416e-01	6.0564e-02	-1.5255e-02	-2.0110e-04	1.8073e+03
341	4.1414e-01	1.2041e-02	2.0943e-01	-3.0423e-02	2.0490e+03
342	1.8368e+00	2.0173e-01	2.3905e-01	-1.2548e-01	6.5335e+02
343	6.4830e-01	1.5670e-02	3.3721e-01	8.0376e-02	2.4864e+03
344	7.1339e-01	1.7617e-01	2.7159e-01	8.6469e-02	1.0354e+03
345	5.7837e-01	6.0932e-02	5.1126e-01	4.8627e-02	1.8388e+03
346	1.5076e+00	2.5635e-01	1.2522e-01	8.1657e-03	3.8447e+02
347	2.5126e-01	4.7076e-02	-7.1578e-04	5.2368e-02	1.8660e+03
348	3.1449e-01	1.7951e-01	2.3155e-01	-4.1123e-02	5.8415e+02
349	1.9314e-01	1.8289e-01	4.3540e-02	-3.2471e-02	6.0152e+02
350	2.1054e-01	1.8603e-02	1.4561e-01	2.8861e-02	1.7751e+03
351	2.5432e-01	5.0834e-02	-8.4764e-03	4.8163e-02	1.8229e+03
352	1.7001e+00	2.7633e-01	3.9894e-02	-9.5849e-02	4.4039e+01
353	2.6730e-01	3.4080e-02	1.1044e-02	-7.8199e-03	1.7935e+03
354	2.1311e-01	1.7807e-01	5.6088e-02	7.0053e-02	7.0612e+02
355	2.7050e-01	1.9855e-01	1.3118e-01	-4.5026e-03	4.4867e+02
356	3.9571e-01	3.2959e-02	2.0707e-01	-8.3301e-02	2.0714e+03
357	1.3867e-01	1.7270e-01	-1.4984e-02	-5.8813e-03	7.4373e+02
358	4.2217e-01	-5.8327e-05	2.5836e-01	-1.6972e-01	1.9416e+03
359	9.0291e-02	1.0202e-01	-1.4146e-02	-6.6108e-02	1.4871e+03
360	1.8373e-01	2.9804e-02	1.0168e-01	-1.9479e-02	1.8650e+03
361	3.6153e-01	1.3673e-01	6.2186e-03	-1.6876e-01	1.0633e+03
362	1.0704e-01	1.4819e-01	-1.8650e-02	-4.3686e-02	9.9871e+02
363	6.4994e-01	1.4960e-01	1.6294e-01	8.6831e-02	1.1568e+03
364	2.5996e-01	6.7358e-02	-6.1131e-02	1.5056e-01	1.6008e+03
365	7.2315e-01	1.9235e-01	3.1805e-01	1.6105e-02	6.9789e+02
366	6.8329e-01	4.3920e-02	2.5473e-01	1.8628e-02	2.1270e+03
367	4.5460e-01	2.2466e-01	1.7808e-01	-1.6500e-01	9.8625e+01
368	3.1783e-01	2.2315e-01	2.5474e-01	-5.6386e-02	1.1658e+02
369	1.0466e-01	7.5035e-02	3.0869e-02	-7.4316e-02	1.6549e+03
370	6.6967e-01	1.5377e-01	2.8169e-01	1.1302e-01	1.0457e+03
371	1.6567e-01	1.3809e-01	-5.1330e-02	2.8984e-02	1.0424e+03
372	7.7130e-01	2.0887e-01	2.2144e-01	7.2904e-02	6.6587e+02
373	6.4533e-02	1.6178e-01	-2.2397e-03	-6.1045e-02	9.0785e+02
374	9.2948e-02	6.4496e-02	4.4971e-02	-5.1470e-02	1.8302e+03
375	5.2629e-01	1.6528e-01	-8.8813e-02	-2.3554e-01	6.3495e+02
376	9.2169e-01	2.1789e-01	3.2841e-01	9.0543e-03	5.9677e+02
377	1.2834e-01	1.5212e-01	-1.1093e-02	-1.3475e-03	9.2998e+02
378	3.2061e-01	2.0517e-01	2.6397e-01	-5.7034e-02	3.8453e+02
379	4.6219e-01	2.1904e-01	1.6936e-01	-1.3423e-01	1.6326e+02
380	2.4943e-01	8.0618e-02	-2.7445e-02	1.1055e-01	1.6618e+03
381	1.0396e+00	2.3339e-01	1.9526e-01	2.0329e-01	5.3543e+02
382	9.6563e-01	1.1613e-01	2.8588e-01	1.6462e-01	1.9233e+03
383	6.6068e-01	3.7965e-02	1.2051e-01	-9.0111e-03	2.2030e+03
384	4.0455e-01	2.3043e-01	1.9406e-01	-1.0064e-01	0.0000e+00
385	1.2267e-01	3.6046e-02	1.4484e-01	-1.3196e-02	1.8788e+03
386	-2.0069e-03	1.3817e-02	2.0713e-02	1.0798e-02	2.0825e+03
387	2.5335e-01	1.2138e-01	7.0992e-03	6.7983e-02	1.2329e+03
388	1.5945e-01	1.7033e-01	4.2094e-02	4.4477e-02	7.4819e+02
389	2.4211e-01	1.9531e-01	1.4535e-01	1.5465e-02	4.7033e+02
390	6.9065e-02	1.4024e-01	-4.0191e-02	-4.2009e-02	1.0871e+03
391	3.8827e-01	1.6137e-01	2.2491e-02	-1.4350e-01	6.8943e+02
392	2.1288e-02	1.1832e-01	-6.1160e-02	-5.1872e-02	1.3559e+03
393	2.9877e-01	2.2449e-01	2.2487e-01	-3.0606e-02	1.8384e+02
394	1.9411e-01	2.1075e-01	1.6297e-01	-6.6551e-02	3.5246e+02
395	8.3982e-01	1.6429e-01	2.7811e-01	4.0603e-02	1.2198e+03
396	1.9294e-02	2.1001e-01	1.3548e-02	-8.2160e-02	3.5898e+02
397	2.0995e-02	7.5911e-02	-5.2011e-02	-9.7525e-02	1.7601e+03
398	1.1460e-01	2.0824e-02	1.3057e-01	-3.7732e-02	1.7977e+03
399	-9.5024e-04	4.7078e-02	1.0571e-01	-8.8837e-03	2.0036e+03
400	5.3030e-02	3.7927e-02	3.1464e-02	5.3858e-02	1.8191e+03
401	7.7088e-01	5.6825e-02	1.8876e-01	8.6073e-03	2.1809e+03
402	7.5815e-02	9.7643e-02	7.4475e-02	-4.7310e-02	1.4978e+03
403	6.7296e-02	1.1760e-01	3.3170e-02	-1.0070e-01	1.3386e+03
404	2.4107e-01	5.4788e-02	7.5058e-03	1.4576e-02	1.7521e+03
405	2.1366e-01	2.2903e-01	1.7098e-01	-6.3457e-02	9.9893e+00
406	6.3081e-02	2.6657e-02	2.4915e-02	-5.9864e-02	2.0713e+03
407	4.5535e-01	7.4744e-04	2.4545e-01	1.8835e-02	1.9582e+03
408	4.2541e-01	6.7651e-02	1.1227e-01	-2.5687e-01	1.6903e+03
409	3.9124e-01	2.0377e-01	2.3823e-01	-2.7687e-02	4.0020e+02
410	5.4218e-01	1.6414e-02	4.5494e-01	4.4236e-02	1.8075e+03
411	4.0319e-01	1.1242e-01	-2.3871e-02	-2.5686e-01	1.2488e+03
412	7.6757e-02	1.4500e-01	-7.8650e-03	2.1499e-02	1.0803e+03
413	1.9854e-02	4.6467e-03	-8.7663e-02	-3.3496e-02	1.6632e+03
414	3.0985e-01	2.0817e-01	2.4736e-01	5.0182e-02	2.8352e+02
415	3.0224e-01	1.7064e-01	1.7854e-01	-3.9186e-03	7.2583e+02
416	1.7562e-01	1.8671e-01	-1.3527e-02	1.5743e-02	5.6062e+02
417	1.6667e-01	4.0803e-02	1.2113e-01	6.9078e-03	1.8300e+03
418	2.2199e-01	1.3509e-01	8.5880e-02	5.6877e-02	1.1287e+03
419	2.0931e-01	1.3579e-01	8.0856e-03	4.5471e-02	1.1338e+03
420	1.3594e-01	1.5657e-01	3.7105e-02	1.2318e-02	9.2467e+02
421	3.1971e-02	2.1943e-01	-6.6519e-03	-3.9984e-02	2.7000e+02
422	8.4698e-01	2.0135e-01	3.8730e-01	-5.5429e-02	8.7695e+02
423	3.2535e-01	2.1869e-01	2.2593e-01	-7.0841e-02	1.7100e+02
424	1.7798e-01	6.8992e-02	-3.2030e-04	-4.1482e-03	1.6218e+03
425	3.3964e-01	1.2654e-03	1.2508e-01	-9.8131e-02	1.9343e+03
426	3.7829e-01	3.8609e-03	1.4651e-01	-6.7672e-03	1.7487e+03
427	1.0106e-01	2.1350e-01	9.8285e-03	-1.1492e-02	3.7926e+02
428	3.2609e-02	8.1605e-02	8.2492e-02	-3.6609e-03	1.6002e+03
429	3.0484e-01	1.9961e-01	1.5778e-01	-5.0024e-02	4.0545e+02
430	9.5894e-01	3.4282e-02	1.2165e-01	-6.6854e-02	2.3739e+03
431	7.9956e-02	1.1291e-01	-1.9659e-02	1.2136e-02	1.3263e+03
432	3.4666e-01	2.2959e-01	2.1514e-01	-2.7307e-02	3.8481e+00
433	1.9323e-01	1.9394e-01	1.7186e-02	-2.3832e-03	4.7018e+02
434	2.4393e-01	6.9418e-02	-5.0907e-02	1.8553e-03	1.7142e+03
435	5.3622e-01	1.0941e-01	2.0427e-01	-1.2205e-01	1.2304e+03
436	8.6282e-01	7.5278e-02	2.2026e-01	-3.7253e-02	2.2414e+03
437	1.7664e-01	1.5305e-01	3.3200e-02	-3.8171e-02	9.2899e+02
438	2.3161e-01	1.5734e-01	7.2933e-02	6.3292e-02	9.2644e+02
439	2.2616e-01	2.2842e-01	1.2998e-01	-7.0380e-03	1.0232e+01
440	7.1565e-01	7.8967e-02	3.0263e-01	-1.7832e-02	1.8749e+03
441	3.7881e-01	1.3723e-02	1.2272e-01	2.4835e-02	1.8356e+03
442	6.2334e-01	5.9165e-02	3.1377e-01	8.9641e-02	1.8534e+03
443	1.6492e-01	6.9592e-02	-4.8625e-03	8.6032e-03	1.6905e+03
444	5.9390e-01	7.6266e-02	2.9930e-01	1.9267e-01	1.7552e+03
445	1.0215e+00	2.4197e-01	1.1437e-01	1.6621e-01	4.3343e+02
446	2.7915e-01	8.5129e-02	-2.4498e-02	-4.7596e-02	1.5676e+03
447	1.2200e-02	6.6830e-02	1.0003e-01	-1.1704e-01	1.7980e+03
448	3.4778e-02	-6.5269e-03	3.7351e-02	4.9797e-02	1.7169e+03
449	1.4607e-01	8.8682e-03	8.0144e-02	4.1476e-02	1.8350e+03
450	9.1000e-03	2.0382e-01	1.0672e-03	-4.4550e-02	4.3894e+02
451	5.1995e-02	2.3047e-01	4.3926e-02	-5.7844e-02	0.0000e+00
452	3.9036e-01	-4.3021e-03	2.0639e-01	5.2780e-02	1.7100e+03
453	1.3251e-01	4.5327e-02	1.1888e-01	-5.0908e-02	1.8771e+03
454	1.5562e-01	4.3329e-02	8.7473e-02	2.3533e-02	1.8850e+03
455	8.8720e-02	1.5596e-01	-1.9359e-02	-1.9706e-02	9.3809e+02
456	2.9844e-01	5.3787e-02	-1.7621e-02	8.2961e-02	1.8012e+03
457	1.2222e-01	1.8077e-02	1.7061e-01	8.3973e-02	1.8355e+03
458	8.3180e-02	2.8061e-02	6.4268e-02	-6.3511e-02	1.9606e+03
459	1.3611e-02	2.9414e-02	-7.2531e-02	-1.3601e-02	1.8810e+03
460	1.1590e-01	1.6120e-01	-3.5764e-02	-4.5854e-02	8.9271e+02
461	2.2185e-01	2.2829e-01	1.9184e-01	-4.0161e-02	6.3943e+01
462	1.3677e-01	2.2503e-01	4.2565e-02	-6.8172e-02	3.0014e+01
463	1.7082e-02	1.0869e-01	5.4754e-02	-1.3942e-01	1.4489e+03
464	1.4410e-01	9.0613e-02	2.0360e-02	5.8092e-02	1.4768e+03
465	2.2458e-02	1.8895e-01	5.5740e-02	-8.2933e-02	6.0600e+02
466	8.4037e-02	1.6167e-01	9.9684e-03	-3.2197e-02	8.7060e+02
467	2.5337e-01	2.0504e-01	1.4497e-01	3.7280e-02	4.1466e+02
468	1.6010e-02	8.6712e-03	-1.9440e-02	2.8081e-02	1.7810e+03
469	2.7970e-01	1.1890e-01	-2.6346e-02	5.4592e-03	1.1418e+03
470	3.6805e-02	6.8869e-02	-1.3436e-01	-7.0053e-02	1.6421e+03
471	3.2289e-01	7.0636e-03	2.3988e-01	5.4175e-03	1.9132e+03
472	4.8077e-02	1.9866e-01	-1.9060e-02	-7.2666e-02	4.5989e+02
473	2.0516e-01	2.1784e-01	7.1702e-02	-2.4451e-02	3.2510e+02
474	3.7103e-02	3.8535e-02	4.9748e-02	-8.6947e-02	1.8249e+03
475	2.6715e-02	2.0304e-01	-4.8110e-02	-2.6837e-02	5.2380e+02
476	6.5430e-01	6.9731e-02	4.1642e-01	3.8369e-02	1.8736e+03
477	3.1591e-01	9.9553e-02	-3.5807e-02	5.0339e-03	1.4160e+03
478	2.2342e-01	2.0526e-01	1.2254e-01	-9.7193e-02	4.2373e+02
479	2.2694e-01	1.4902e-01	2.2983e-02	1.1471e-02	9.7815e+02
480	3.8419e-01	1.9027e-01	1.9313e-01	-8.3949e-02	4.6920e+02
481	6.6949e-01	1.7719e-01	2.0897e-01	-2.0873e-02	9.2513e+02
482	5.6410e-01	1.3124e-01	1.5691e-01	-8.5679e-02	1.1419e+03
483	1.0034e-01	4.1261e-02	9.4120e-02	-7.9167e-02	1.8922e+03
484	2.0392e-01	1.9708e-01	7.0027e-02	-6.5374e-02	4.7544e+02
485	1.2428e-01	6.5773e-02	6.3440e-02	-1.6245e-02	1.7531e+03
486	3.7660e-01	1.6549e-01	1.5011e-01	-1.3384e-01	7.4526e+02
487	2.9133e-01	2.1824e-01	2.2972e-01	-8.2830e-02	2.3167e+02
488	3.3979e-01	1.6635e-01	1.7794e-01	-1.4995e-01	7.1702e+02
489	1.7850e-01	4.6118e-02	1.1099e-01	-5.9406e-02	1.8215e+03
490	6.3751e-02	1.0132e-01	1.4580e-02	-4.1520e-02	1.4874e+03
491	5.5411e-02	2.0504e-01	6.9095e-04	-4.6587e-02	4.0782e+02
492	6.4090e-02	2.3050e-01	4.5185e-02	-4.9757e-02	5.0010e+01
493	3.1258e-01	1.9174e-01	1.4087e-01	4.0306e-03	4.5563e+02
494	2.7893e-01	3.4048e-02	4.7541e-02	7.2148e-02	1.7572e+03
495	1.8352e-01	1.9523e-01	1.0368e-01	2.0792e-02	5.0281e+02
496	8.0196e-01	1.7382e-01	3.0840e-01	6.2776e-02	1.0258e+03
497	1.2761e-01	1.3910e-01	3.0488e-02	3.0794e-03	1.0952e+03
498	6.8578e-02	2.0415e-01	-4.6756e-02	-2.8951e-02	4.4380e+02
499	2.2615e-01	3.1833e-02	7.4614e-02	4.4257e-02	1.8444e+03
500	6.1976e-01	1.7872e-01	1.0333e-01	3.4972e-02	7.5143e+02