variables="k","x","y","vx","vy","pressure"
zone i=8064 j=1
0	3.9313e-01	1.8088e-01	1.6040e-02	-1.3561e-01	5.8609e+02
1	2.5215e-01	2.4757e-01	-1.1083e-02	-1.6330e-02	1.3221e+01
2	4.4118e-02	1.5557e-01	6.9743e-03	9.3074e-02	1.2305e+03
3	4.8521e-01	-1.0144e-03	-6.3726e-02	6.9175e-02	2.0179e+03
4	3.5272e-02	2.0219e-01	-4.3304e-03	1.2077e-01	8.4107e+02
5	7.1482e-01	1.4503e-01	3.6623e-02	-5.9601e-02	6.6392e+02
6	1.6364e-01	2.2095e-01	-1.0010e-01	1.1760e-01	4.1503e+02
7	1.1105e-01	1.6264e-01	-2.2912e-02	1.2695e-01	1.0857e+03
8	-3.6732e-03	5.8566e-02	3.5153e-02	-2.4103e-02	2.0284e+03
9	5.8331e-01	2.0699e-01	-2.7318e-02	-1.0361e-01	5.9228e+01
10	1.3234e-01	2.6011e-01	-1.0389e-01	8.3763e-02	1.5520e+02
11	3.9454e-01	1.3991e-01	-8.1260e-02	-1.5825e-01	9.4493e+02
12	3.3601e-01	6.1532e-02	-1.0928e-01	4.0459e-02	1.8755e+03
13	5.4632e-01	1.5316e-01	-4.6446e-02	1.4468e-01	7.1610e+02
14	8.4395e-01	4.0345e-02	9.2209e-02	-2.0513e-02	1.4216e+03
15	4.0197e-01	1.2363e-01	-1.5033e-01	-2.0127e-01	1.2012e+03
16	3.3485e-01	1.0363e-01	-1.7283e-01	4.8684e-02	1.4505e+03
17	9.6308e-01	6.6702e-02	1.5027e-01	2.2480e-02	9.3110e+02
18	1.3400e+00	1.6459e-01	3.3996e-01	-1.9668e-02	1.7569e+02
19	1.7547e-02	2.3327e-01	-1.5760e-02	1.6626e-01	5.7599e+02
20	3.9475e-01	1.7965e-01	-3.7718e-02	-1.4545e-01	5.6223e+02
21	1.8178e-01	2.5562e-01	-5.0836e-02	5.0187e-02	7.5740e+01
22	2.1415e-01	4.4336e-02	4.7378e-02	-4.6025e-03	1.8307e+03
23	1.6222e-01	2.2607e-01	-1.1414e-01	8.9940e-02	3.9869e+02
24	8.8261e-01	8.5326e-02	1.1338e-01	-6.6896e-02	9.1265e+02
25	-1.4724e-03	1.9139e-01	9.5098e-02	9.6526e-02	9.7381e+02
26	1.4648e-01	2.9730e-02	-4.0161e-02	4.7721e-03	2.0047e+03
27	1.1838e-01	1.2316e-01	-2.6757e-02	4.5935e-02	1.4656e+03
28	3.0331e-01	3.4596e-02	-8.0808e-02	-6.2163e-02	2.0803e+03
29	3.6639e-01	2.0556e-01	2.8956e-02	-6.3961e-02	3.6433e+02
30	-2.1290e-03	1.1568e-01	3.7270e-01	1.3811e-02	1.5688e+03
31	1.5699e-01	1.2874e-01	-4.6774e-02	-1.0080e-02	1.3144e+03
32	2.1492e-01	2.3794e-01	-5.3711e-02	1.3069e-02	1.9099e+02
33	4.5399e-01	2.2267e-01	-5.6826e-02	-5.1704e-02	3.4647e+01
34	9.5297e-01	7.0802e-02	9.9791e-02	-1.1739e-01	9.6939e+02
35	1.0566e+00	1.4729e-01	2.2041e-01	-2.7148e-03	3.8472e+02
36	2.8756e-01	1.0269e-01	-1.6803e-01	3.6666e-02	1.5089e+03
37	1.2778e+00	1.6575e-01	3.1046e-01	-1.0526e-02	8.7501e+01
38	9.4177e-01	1.0100e-01	1.5693e-01	-2.2743e-02	7.2068e+02
39	9.2081e-01	1.1590e-01	7.9466e-02	-1.0082e-01	6.5763e+02
40	3.6573e-01	2.1556e-01	2.3238e-02	-2.9060e-02	2.7512e+02
41	8.7442e-02	1.6113e-01	-3.7260e-02	4.0331e-02	1.1542e+03
42	2.6446e-01	1.7029e-02	2.1302e-02	-6.4816e-02	2.1170e+03
43	9.9138e-01	7.1172e-02	1.6452e-01	3.1995e-02	9.2791e+02
44	3.5882e-01	1.9895e-01	-6.1684e-03	-9.5756e-02	4.5070e+02
45	1.3211e+00	1.6436e-01	3.5734e-01	8.6766e-02	1.5072e+02
46	2.7500e-01	2.4541e-01	3.6059e-03	3.0038e-03	7.2990e+01
47	3.6442e-01	2.2135e-01	-8.6457e-03	2.4876e-03	2.7172e+02
48	5.1230e-02	2.5684e-01	1.8662e-02	1.4918e-01	2.3894e+02
49	4.0108e-01	1.9375e-01	-2.5090e-02	-6.9878e-02	4.2646e+02
50	1.0956e+00	1.4546e-01	2.4175e-01	-5.2435e-02	3.7166e+02
51	8.1173e-02	2.1247e-01	-5.9379e-02	4.8886e-02	6.0658e+02
52	1.5755e-01	8.8080e-02	-1.6782e-02	5.1365e-03	1.6602e+03
53	2.6033e-02	2.2405e-01	2.3611e-02	1.5514e-01	5.8602e+02
54	1.9396e-01	2.1119e-01	-6.8078e-02	2.5639e-02	4.9543e+02
55	2.5100e-01	1.1859e-01	-1.3890e-01	1.5114e-01	1.3087e+03
56	5.0412e-01	8.8165e-02	3.1602e-02	-6.3164e-02	1.4446e+03
57	3.7877e-01	1.1810e-01	-1.3979e-01	-1.0679e-01	1.2283e+03
58	1.3992e+00	1.6471e-01	2.9845e-01	3.2315e-02	5.0781e+01
59	4.1696e-01	1.6908e-01	-5.8913e-02	-9.3883e-02	6.5951e+02
60	4.0872e-02	2.5388e-01	-3.9474e-02	1.7220e-01	3.1777e+02
61	1.1252e+00	1.6156e-01	2.2327e-01	-1.5267e-02	2.5820e+02
62	9.7755e-01	9.6219e-02	1.6414e-01	-4.7890e-02	7.5232e+02
63	2.0804e-01	2.1072e-01	-5.3445e-02	5.6810e-02	5.1030e+02
64	3.2199e-01	-1.3424e-02	2.1375e-01	1.5390e-02	2.2675e+03
65	-6.4849e-03	-3.6040e-04	-1.0962e-01	1.1092e-02	1.7347e+03
66	3.5388e-02	-1.0206e-02	-1.3581e-01	1.7222e-01	2.1515e+03
67	9.0196e-02	2.4503e-01	-5.0519e-02	8.7938e-02	3.0336e+02
68	5.6102e-02	4.8270e-02	-3.6278e-02	1.4412e-02	2.0194e+03
69	7.4452e-02	8.8229e-02	-3.1880e-02	3.2157e-02	1.8235e+03
70	2.6082e-02	1.6144e-01	-3.6017e-02	5.3137e-02	1.2893e+03
71	5.4048e-01	-1.1540e-03	-3.8037e-02	7.1049e-02	2.7752e+03
72	6.2040e-01	1.0751e-01	-2.0229e-02	1.2245e-01	1.1585e+03
73	2.5477e-01	-7.7313e-04	7.9378e-02	1.9481e-01	1.9558e+03
74	1.3989e-01	1.5013e-01	-8.8958e-02	4.6705e-04	1.1408e+03
75	1.3929e+00	1.6421e-01	3.1979e-01	2.2548e-02	1.5133e+02
76	6.1516e-01	9.4355e-02	5.0914e-02	6.1024e-02	1.2219e+03
77	2.9655e-01	2.0069e-01	-5.7114e-02	1.9023e-02	5.5821e+02
78	3.6596e-01	1.8350e-01	-1.3498e-02	-8.0959e-02	5.7769e+02
79	1.1774e-01	1.5988e-01	-7.4013e-02	2.4191e-02	1.0598e+03
80	3.8971e-01	3.2791e-02	-1.1022e-01	-1.0878e-01	2.1983e+03
81	4.6810e-01	1.1494e-01	-8.0776e-02	-9.2183e-02	1.1685e+03
82	1.3757e-01	2.1941e-01	-7.9921e-02	1.3306e-01	4.4103e+02
83	1.3956e+00	1.4418e-01	3.2165e-01	2.4849e-02	4.4080e+02
84	8.9144e-02	2.6730e-01	-7.4533e-02	1.0714e-01	3.7212e+01
85	1.1095e+00	1.6552e-01	1.4614e-01	-4.1715e-02	2.1173e+02
86	8.2026e-02	1.4112e-01	-5.3039e-02	7.1646e-03	1.3633e+03
87	8.3881e-02	1.4876e-01	-4.5326e-02	-3.5175e-02	1.2911e+03
88	1.2191e-01	2.4159e-01	-1.0625e-01	5.3871e-02	3.0398e+02
89	5.8001e-01	5.0730e-02	-1.1527e-01	5.8762e-02	1.7403e+03
90	9.2141e-01	1.7263e-01	6.5795e-02	-5.4086e-02	1.2752e+02
91	3.7535e-01	2.1285e-01	1.6927e-03	-5.9665e-02	3.2871e+02
92	1.8971e-01	1.6262e-01	-1.3145e-01	6.2832e-02	9.2290e+02
93	3.3477e-01	2.2843e-01	1.1601e-02	-5.4578e-02	1.3399e+02
94	1.1015e+00	1.3415e-01	2.9812e-01	-3.1378e-03	4.9216e+02
95	5.5829e-02	6.9420e-02	-2.9550e-02	3.7967e-02	2.0109e+03
96	1.0306e+00	3.3923e-02	6.4427e-02	-1.1100e-01	1.1730e+03
97	2.1968e-01	2.4847e-01	-1.6030e-02	8.3487e-03	1.3590e+01
98	3.0871e-01	8.1745e-02	-1.2600e-01	1.0683e-01	1.6546e+03
99	9.2379e-01	1.1665e-01	1.4610e-01	-5.9907e-02	6.2174e+02
100	4.1792e-01	1.3183e-01	-1.0075e-01	-1.9509e-01	1.0642e+03
101	3.9708e-01	1.5416e-01	1.9605e-02	-1.9016e-01	8.4410e+02
102	1.1136e+00	1.5154e-01	1.9879e-01	-4.9955e-02	3.1125e+02
103	1.3292e+00	9.5496e-02	1.5650e-01	4.4046e-02	9.2180e+02
104	1.2278e-02	2.4438e-01	3.4337e-02	6.8716e-03	2.3473e+02
105	5.9732e-01	2.7396e-02	-7.1424e-02	-3.2391e-02	1.7472e+03
106	1.7452e-01	2.3419e-01	-8.4382e-02	6.8851e-02	3.4841e+02
107	5.2540e-01	1.5433e-01	-5.6991e-02	5.2792e-02	7.8466e+02
108	4.0132e-01	1.4306e-01	-7.3027e-02	-2.1380e-01	8.8004e+02
109	9.8295e-01	1.5112e-01	5.3719e-02	-5.4699e-02	3.1967e+02
110	1.2466e+00	1.0176e-01	2.2176e-01	6.3880e-02	7.2203e+02
111	1.1267e+00	1.7595e-01	1.5476e-01	-6.2981e-02	4.4075e+01
112	1.3065e-01	2.2289e-01	-9.3840e-02	1.1478e-01	4.4429e+02
113	1.0081e-01	2.5386e-01	-6.2751e-02	1.3250e-01	2.6390e+02
114	3.5942e-01	1.1581e-01	-1.3539e-01	-1.2829e-02	1.2863e+03
115	2.9016e+00	3.4710e-02	-1.6915e-02	2.2124e-02	2.1191e+03
116	1.0122e+00	1.6813e-01	1.7846e-01	-9.2663e-02	1.7110e+02
117	1.3320e+00	1.2569e-01	2.9697e-01	1.9895e-02	5.1895e+02
118	5.8207e-01	8.3260e-02	-2.1742e-02	4.6895e-02	1.4659e+03
119	3.8406e-01	1.5954e-01	-2.3998e-02	-6.9211e-02	7.9501e+02
120	9.8014e-01	1.3193e-01	1.1160e-01	-8.3297e-02	4.9792e+02
121	3.4493e-01	1.6039e-01	-3.0027e-02	-1.9658e-02	8.7459e+02
122	2.8970e-01	2.4456e-01	3.8896e-02	2.3307e-02	0.0000e+00
123	3.6312e-01	1.6401e-01	1.8948e-02	-6.4957e-02	8.3197e+02
124	1.3481e-01	2.0433e-01	-1.6423e-02	7.2937e-02	6.5607e+02
125	6.4836e-01	4.8325e-02	-1.2307e-01	-7.4467e-02	1.6370e+03
126	2.8020e-01	1.4715e-01	-1.0548e-01	9.2392e-02	1.0507e+03
127	4.2130e-01	8.5976e-02	-1.1100e-01	-2.3382e-01	1.4778e+03
128	1.7510e-01	1.3030e-01	-1.1311e-01	3.7908e-02	1.2027e+03
129	-2.7630e-03	1.0424e-01	1.0902e-01	5.1320e-03	1.7318e+03
130	8.8123e-01	1.4370e-01	6.1486e-02	-3.9194e-02	4.9228e+02
131	4.0642e-01	2.1138e-01	1.0247e-02	-5.2007e-02	3.4271e+02
132	1.9791e-01	1.4890e-02	-4.3336e-02	-4.1955e-02	2.1122e+03
133	2.9467e-01	-1.6869e-03	-6.4745e-02	-2.0074e-01	2.4185e+03
134	1.8074e-02	1.1990e-01	8.6398e-02	4.6502e-02	1.5002e+03
135	3.4176e-02	2.1081e-01	-3.7277e-02	1.5290e-01	7.4793e+02
136	9.4348e-02	2.4906e-01	-6.1269e-02	4.1021e-02	2.6181e+02
137	3.4303e-01	2.3231e-01	1.3856e-02	-3.1012e-02	5.2379e+01
138	3.8802e-01	1.1514e-01	-1.5444e-01	-1.1285e-01	1.2498e+03
139	4.0727e-01	1.8973e-01	-9.5984e-03	-1.2066e-01	4.4235e+02
140	3.6215e-01	1.9134e-01	1.3120e-03	-6.5012e-02	4.9634e+02
141	2.5607e-01	5.2174e-02	-1.0834e-01	-1.0270e-02	1.7745e+03
142	1.7798e-02	2.5785e-01	-2.7829e-02	7.3917e-02	1.0440e+02
143	1.3822e-01	5.8819e-02	-8.6974e-03	-7.2161e-02	1.9198e+03
144	2.5225e-01	1.7810e-01	-2.1926e-02	9.1014e-02	7.7334e+02
145	3.7443e-01	1.0896e-01	-1.8927e-01	-1.4811e-01	1.3387e+03
146	9.0066e-01	1.6793e-01	4.9709e-02	-1.5136e-02	2.7251e+02
147	7.8805e-02	1.7204e-01	-5.2267e-02	3.1953e-02	1.0875e+03
148	1.7820e+00	1.7835e-01	1.3348e-01	3.8743e-02	4.8177e+02
149	7.6038e-01	1.0753e-01	8.3529e-02	-1.1134e-01	1.0450e+03
150	6.2282e-01	3.7103e-02	-7.6920e-02	-1.3149e-02	1.7350e+03
151	3.8709e-01	2.1430e-01	-1.9223e-02	-6.8369e-02	2.8169e+02
152	1.2890e-01	2.3445e-01	-1.3336e-01	7.7278e-02	4.2054e+02
153	6.9555e-01	1.1244e-01	1.7961e-02	-1.3557e-01	9.9817e+02
154	5.7994e-01	8.9758e-02	7.5548e-02	1.6783e-01	1.3413e+03
155	3.7684e-02	3.1405e-02	1.0047e-01	-5.7679e-03	2.0602e+03
156	3.9944e-01	6.7317e-02	-1.2638e-01	-2.0468e-01	1.6874e+03
157	3.0598e-01	1.4305e-01	-1.0484e-01	1.0964e-01	1.0995e+03
158	1.5367e+00	1.5428e-01	3.3654e-01	3.6187e-02	2.6463e+02
159	2.3629e-01	6.3381e-02	-1.5898e-01	-4.3456e-03	1.7448e+03
160	6.7485e-01	1.0665e-01	2.3418e-02	-6.5385e-02	1.0922e+03
161	1.3185e+00	1.1914e-01	3.1269e-01	-3.8059e-02	6.8785e+02
162	1.3325e-01	1.5250e-01	-6.0843e-02	3.4721e-02	1.1318e+03
163	4.1980e-01	2.3070e-01	1.8003e-03	-5.1598e-02	7.9075e+01
164	6.1429e-01	1.8687e-01	-4.3338e-02	-3.4276e-02	2.5637e+02
165	3.5506e-01	2.3026e-01	-2.6512e-03	-4.3304e-03	1.4573e+02
166	2.6195e-01	1.8943e-01	-7.4328e-02	7.7366e-02	6.7393e+02
167	3.7800e-01	2.0352e-01	1.7895e-02	-1.0702e-01	4.0147e+02
168	2.4641e-01	5.1935e-03	-1.7001e-01	-7.6491e-02	2.0237e+03
169	1.2839e-01	1.6537e-01	-3.3594e-02	-1.6557e-02	9.9912e+02
170	4.2196e-02	2.3145e-02	-1.6577e-02	-3.4386e-02	2.1286e+03
171	5.0272e-01	1.0475e-02	1.4910e-02	-2.2981e-02	2.1316e+03
172	3.4144e-01	1.5883e-01	-1.8666e-02	-5.9658e-03	9.2298e+02
173	1.0502e-01	2.6708e-01	-1.0551e-01	1.1117e-01	0.0000e+00
174	5.8536e-01	1.2274e-01	5.4042e-02	6.8840e-02	9.6697e+02
175	6.7395e-01	5.8824e-02	-6.4041e-02	-1.1966e-01	1.5643e+03
176	1.4292e+00	8.8191e-02	1.1429e-01	-3.1974e-02	1.0384e+03
177	5.8024e-03	2.5204e-01	-6.5629e-02	1.9236e-01	3.4026e+02
178	2.4611e-01	8.5216e-02	-7.7429e-02	3.4630e-05	1.6272e+03
179	7.2454e-01	1.9395e-01	3.6576e-02	-5.6649e-02	6.8217e+01
180	3.3427e-01	1.1766e-01	-1.2204e-01	6.1546e-02	1.2624e+03
181	2.4064e-01	1.1623e-01	-7.7237e-02	5.6190e-02	1.3615e+03
182	6.4165e-02	1.7253e-01	-6.2710e-02	3.7952e-02	1.0938e+03
183	4.2670e-02	2.3716e-01	-5.5861e-02	1.8071e-01	4.6219e+02
184	8.2008e-01	1.4651e-01	3.0378e-02	-5.2140e-02	5.5312e+02
185	4.4021e-01	1.6397e-01	-4.2421e-02	-1.0792e-01	6.8617e+02
186	1.2477e+00	1.5304e-01	2.8873e-01	-9.9480e-03	2.9506e+02
187	2.9759e-01	1.8758e-01	-2.9892e-02	2.8588e-02	6.5577e+02
188	1.8068e-01	1.2174e-01	-1.8249e-01	-1.7606e-02	1.2917e+03
189	9.7343e-01	1.1250e-01	9.5834e-02	-8.0609e-02	5.9873e+02
190	6.0489e-01	3.0332e-02	-6.9253e-02	1.2406e-01	1.8180e+03
191	5.9548e-01	2.6198e-02	-1.7807e-01	-4.0333e-02	1.7425e+03
192	1.2663e-02	1.8915e-01	1.3914e-02	9.3021e-02	9.9161e+02
193	5.4043e-02	5.8147e-02	-4.2901e-02	4.6693e-02	2.0763e+03
194	7.2340e-02	2.4037e-01	-7.4322e-03	8.7437e-02	2.7982e+02
195	2.1513e-01	1.1600e-02	-8.0783e-02	4.8738e-02	1.8881e+03
196	-3.7846e-03	6.9040e-02	2.1570e-01	4.0854e-02	1.9862e+03
197	1.2076e-02	2.1132e-01	2.2583e-02	-3.0148e-03	5.5627e+02
198	5.9796e-02	1.1314e-01	-4.1077e-02	2.4522e-03	1.6090e+03
199	1.7587e-01	1.4372e-01	-3.1414e-02	1.5889e-02	1.1195e+03
200	1.8547e-02	8.6143e-02	-2.3237e-02	5.5711e-02	1.8838e+03
201	3.3342e-02	8.0275e-02	-7.0356e-02	8.1201e-03	1.9200e+03
202	1.2399e-01	6.3134e-02	-1.4156e-02	2.6312e-02	1.9840e+03
203	1.7752e-01	5.0226e-02	-7.7087e-02	-1.8143e-02	1.9046e+03
204	9.8552e-02	6.8325e-02	-3.7822e-02	-2.4726e-03	1.9032e+03
205	3.4769e-01	1.1572e-01	-9.7552e-02	3.4139e-02	1.3532e+03
206	4.4337e-01	2.2490e-01	-7.6526e-02	-7.2351e-02	1.5773e+02
207	1.6731e-01	5.1328e-02	4.8415e-02	2.1131e-02	1.9038e+03
208	4.2257e-02	1.8930e-01	2.7171e-02	1.2008e-01	9.1106e+02
209	6.9761e-02	1.8271e-01	-1.0855e-01	9.2410e-02	9.6714e+02
210	6.3669e-01	1.3349e-01	7.4054e-02	-3.9398e-02	7.9133e+02
211	3.2829e-01	1.5487e-01	-3.4544e-02	6.3257e-02	9.0343e+02
212	5.4851e-02	2.7093e-01	-2.7818e-02	1.3198e-01	2.3437e+01
213	1.9941e-01	3.3939e-02	1.5885e-04	1.0720e-02	1.9300e+03
214	1.3102e-02	2.6966e-01	6.0121e-02	1.5556e-01	2.2963e+02
215	1.0829e-01	1.9772e-01	-1.2095e-01	5.1145e-02	7.5954e+02
216	1.0482e+00	1.7922e-01	1.3841e-01	-8.0220e-02	5.4033e+01
217	1.0817e-01	1.0611e-01	-8.9925e-02	1.7167e-02	1.5854e+03
218	2.8824e-01	2.3305e-01	9.4305e-03	2.8965e-02	2.9986e+02
219	6.3309e-01	4.6320e-02	2.1901e-02	6.3533e-02	1.6033e+03
220	2.0210e-01	7.7383e-02	-6.6982e-02	1.3864e-03	1.5536e+03
221	3.4338e-01	2.4743e-02	-1.4020e-01	2.0616e-02	2.1516e+03
222	8.0491e-02	1.6053e-01	-3.5535e-02	4.9526e-02	1.1765e+03
223	2.7369e-01	6.3607e-02	-1.6177e-01	8.7019e-02	1.6637e+03
224	3.7308e-01	1.9797e-04	-1.1236e-01	-1.6134e-01	2.0131e+03
225	4.9946e-01	2.1462e-01	-1.6655e-02	-4.2816e-02	1.0248e+02
226	4.6204e-02	2.0222e-01	-7.0481e-02	1.3639e-01	8.3091e+02
227	1.2541e+00	1.6879e-01	3.6111e-01	-1.3284e-02	7.7038e+01
228	7.1030e-01	9.4901e-02	-1.4652e-02	4.1623e-03	1.1694e+03
229	4.0405e-01	1.6976e-01	-6.0791e-02	-1.9192e-01	6.3235e+02
230	1.5264e-01	2.4077e-01	-9.0320e-02	7.9726e-02	2.8153e+02
231	5.7393e-02	1.9776e-01	-6.3090e-02	7.9333e-02	8.5665e+02
232	1.2728e-01	1.4919e-01	-4.7069e-02	1.2722e-02	1.2121e+03
233	7.4141e-01	1.6924e-01	1.7729e-02	-8.3172e-02	3.3080e+02
234	1.3103e+00	1.6705e-01	3.7665e-01	3.1727e-02	9.7873e+01
235	3.3450e-01	5.5160e-02	-1.7422e-01	1.0855e-01	1.8705e+03
236	1.9360e-01	1.8954e-01	-1.4742e-01	5.7607e-02	7.3697e+02
237	6.3952e-01	1.6854e-01	8.6844e-02	-9.3174e-02	4.6918e+02
238	1.0227e-01	3.5357e-02	-8.3526e-02	8.3172e-03	2.0131e+03
239	8.3066e-01	1.5309e-01	3.2630e-02	-9.6684e-02	4.6567e+02
240	5.7910e-01	2.5215e-02	5.3191e-03	-2.6919e-04	1.8420e+03
241	3.0619e-01	1.1038e-01	-1.3073e-01	1.6665e-01	1.3738e+03
242	1.0313e+00	1.5363e-01	1.1227e-01	-9.3191e-02	3.5060e+02
243	9.5040e-01	7.4003e-02	1.0219e-01	4.7603e-02	9.0070e+02
244	1.8699e-01	2.2126e-01	-1.0986e-01	6.3151e-02	3.6397e+02
245	7.7764e-02	2.5350e-01	-1.1694e-01	1.1636e-01	2.1625e+02
246	3.2750e-01	1.8147e-01	3.4094e-02	-2.0581e-02	6.7480e+02
247	8.1243e-01	7.2360e-02	8.6454e-02	-4.7880e-02	1.2358e+03
248	1.4789e+00	1.4830e-01	3.2129e-01	2.0460e-01	4.1460e+02
249	1.8404e-01	8.5642e-02	-2.1311e-02	5.0304e-03	1.6639e+03
250	1.2953e-01	7.4929e-02	-3.6784e-02	-2.2342e-02	1.7856e+03
251	3.4155e-01	1.9157e-01	3.5735e-02	5.6718e-03	4.9301e+02
252	1.4291e+00	1.6466e-01	3.4912e-01	-2.5909e-02	7.1183e+01
253	6.1296e-02	1.9544e-01	-7.5746e-02	1.1650e-01	8.7934e+02
254	2.1329e-01	1.0132e-01	-3.0489e-02	5.3629e-02	1.4937e+03
255	2.7137e-01	3.1032e-02	-2.7529e-02	-3.3648e-02	1.9947e+03
256	3.3400e-01	1.9727e-01	-9.4406e-03	-3.0123e-02	5.3214e+02
257	1.1525e-01	1.7156e-03	-1.8388e-02	4.4824e-02	2.0325e+03
258	1.9036e-01	2.5329e-01	-4.1967e-02	5.4078e-02	3.9204e+01
259	2.0716e-02	1.6188e-01	9.6300e-04	4.0139e-02	1.2561e+03
260	2.2791e-01	2.4886e-01	-6.6756e-02	3.3785e-02	4.5420e+01
261	9.3412e-02	4.9267e-02	3.2733e-02	-1.4961e-02	2.0331e+03
262	4.1096e-01	1.9724e-01	-8.1996e-02	-9.9342e-02	3.4487e+02
263	1.5926e-01	2.4219e-01	-1.0532e-01	6.7734e-02	2.5189e+02
264	6.8403e-02	1.2538e-01	1.7289e-02	9.5914e-03	1.5152e+03
265	1.0939e-03	2.3669e-01	-1.0439e-02	2.3041e-02	2.2550e+02
266	2.1450e-02	2.7274e-01	-1.1700e-01	1.6978e-01	0.0000e+00
267	2.7006e-03	1.3295e-01	3.9763e-02	3.3499e-03	1.5012e+03
268	1.9195e-01	9.2154e-02	-9.2440e-02	-2.2979e-02	1.6067e+03
269	2.9479e-01	1.7795e-01	-3.0256e-02	7.2167e-02	7.7415e+02
270	1.8991e-03	2.2314e-01	-7.7199e-02	3.5733e-02	4.5930e+02
271	4.5858e-02	1.3470e-01	4.6159e-03	9.8046e-02	1.4273e+03
272	3.5306e-01	2.1400e-01	4.3682e-02	-6.6614e-02	3.4641e+02
273	2.2711e-02	1.3594e-01	6.1675e-03	2.2085e-02	1.4405e+03
274	5.9026e-01	3.6468e-02	-3.3830e-02	4.9909e-02	1.7198e+03
275	5.6464e-02	1.8036e-01	-2.7546e-02	5.9261e-02	1.0316e+03
276	6.5566e-01	1.1879e-01	5.8623e-02	-3.9821e-02	9.7001e+02
277	6.8590e-01	8.7065e-02	-2.8639e-02	-4.6563e-02	1.2882e+03
278	1.2261e-01	1.3752e-01	-6.1659e-02	3.5473e-02	1.2406e+03
279	3.1787e-01	1.7309e-01	-5.4310e-02	4.2660e-02	7.7110e+02
280	8.4388e-01	5.3310e-02	6.6690e-02	-1.1694e-01	1.2838e+03
281	3.8624e-01	1.3195e-01	-8.2519e-02	-8.2270e-02	1.0436e+03
282	3.1669e-01	2.1615e-01	1.5947e-02	-5.3081e-02	3.0366e+02
283	1.0235e-01	2.3469e-01	-4.6669e-02	6.5963e-02	3.4983e+02
284	4.0687e-01	3.1135e-03	-7.4149e-02	-2.1989e-02	2.0111e+03
285	1.2088e-01	2.5691e-01	-6.2151e-02	7.6327e-02	1.7058e+02
286	1.2852e-01	2.6283e-01	-2.3814e-02	8.2396e-02	6.8703e+01
287	4.6544e-02	2.0028e-01	-3.8362e-02	1.3282e-01	8.4817e+02
288	1.4204e+00	1.1643e-01	3.1600e-01	-4.5272e-02	7.4183e+02
289	7.0369e-02	6.7264e-02	-2.5825e-02	-2.2138e-02	1.9585e+03
290	5.7134e-01	1.4607e-01	-5.3243e-02	1.3133e-01	7.9098e+02
291	9.5705e-02	1.0747e-01	-1.2107e-02	9.6132e-02	1.6041e+03
292	6.3321e-01	4.2118e-03	-5.4243e-02	5.3283e-02	1.7810e+03
293	1.8224e-01	2.4660e-01	-8.8035e-02	4.3898e-02	1.7055e+02
294	6.4532e-01	5.3017e-02	-9.2104e-02	-3.7623e-02	1.6126e+03
295	1.9256e-01	1.2482e-01	-6.0072e-02	5.7074e-02	1.2412e+03
296	4.1804e-01	1.3645e-01	-3.2043e-02	-1.6489e-01	1.0150e+03
297	2.6902e-01	9.8243e-02	-2.4206e-01	1.2750e-01	1.5096e+03
298	4.9817e-01	1.9251e-01	-1.8493e-01	-3.5900e-02	4.6804e+02
299	1.9151e-01	1.1190e-01	-1.1408e-01	2.9840e-02	1.3700e+03
300	1.4586e-01	6.0207e-02	-8.7334e-02	7.9992e-02	1.8899e+03
301	5.3904e-01	1.6680e-01	-5.3454e-02	4.4057e-02	6.2235e+02
302	2.2940e-01	1.6629e-01	-1.1939e-01	1.0744e-01	8.7594e+02
303	9.8042e-02	1.3247e-01	-3.1910e-02	2.4206e-02	1.3672e+03
304	1.1077e+00	1.2258e-01	2.1538e-01	2.5105e-02	5.5359e+02
305	2.2178e-01	1.9662e-01	-1.0171e-01	1.2633e-01	5.5214e+02
306	6.9745e-01	1.4311e-01	6.1690e-02	-7.9161e-02	6.7026e+02
307	2.3108e+00	2.2580e-01	-9.1621e-02	1.4194e-01	1.0165e+03
308	6.0998e-01	9.4717e-02	-6.7569e-02	-6.6127e-02	1.2213e+03
309	1.0295e-01	2.6695e-01	1.5910e-02	7.5091e-02	0.0000e+00
310	7.0969e-01	6.5082e-02	-3.6362e-02	-1.7883e-02	1.4668e+03
311	1.9556e-01	4.7256e-02	-3.1238e-02	-1.1536e-02	1.8581e+03
312	6.4980e-01	1.7645e-01	7.5612e-02	1.3221e-03	4.2444e+02
313	1.0615e-02	1.7558e-01	5.8716e-02	8.9180e-02	1.0043e+03
314	8.7514e-02	2.6776e-01	-5.6137e-02	8.6907e-02	1.3254e+02
315	1.8066e-01	2.2216e-01	-1.1191e-01	6.4287e-02	4.2146e+02
316	3.2938e-01	1.3778e-01	-1.1850e-01	1.7927e-02	1.1776e+03
317	9.1352e-02	1.0653e-01	-8.1541e-03	4.9329e-02	1.6083e+03
318	8.6986e-01	1.1396e-01	1.0912e-01	-9.2736e-02	7.6139e+02
319	4.7083e-01	2.0339e-01	-9.8234e-02	-6.7081e-02	2.6520e+02
320	2.0921e-02	1.0531e-02	8.2203e-02	-6.2906e-02	2.0032e+03
321	3.9553e-01	1.0969e-01	-3.1057e-02	-5.4722e-02	1.3078e+03
322	8.0123e-02	4.5560e-02	-7.8298e-02	4.1777e-03	2.0640e+03
323	1.4295e-01	1.8953e-01	-6.0243e-02	1.4634e-02	7.6161e+02
324	5.7500e-01	-7.0431e-03	-8.0706e-02	-1.3542e-01	1.8251e+03
325	2.4787e-02	1.8454e-01	-5.1571e-03	9.1248e-02	1.0291e+03
326	1.5438e-01	2.5925e-01	-9.3888e-02	4.4398e-02	2.6976e+02
327	1.2900e-01	1.7118e-01	-1.2719e-01	6.2675e-02	9.7754e+02
328	1.1533e-01	2.2900e-01	-1.3673e-01	6.8026e-02	4.9142e+02
329	1.5106e-02	1.2306e-01	-3.5103e-02	2.1053e-02	1.4858e+03
330	2.8063e-01	4.0958e-02	4.5187e-02	8.5031e-02	1.8648e+03
331	7.0767e-02	1.7321e-03	-1.1847e-03	-2.3911e-01	2.0080e+03
332	2.0887e-01	3.6955e-02	-5.0516e-02	1.3088e-02	1.9189e+03
333	5.7909e-02	1.6161e-02	5.2663e-03	-4.2137e-02	2.2017e+03
334	1.1037e-02	1.4299e-01	-1.8222e-02	5.7718e-02	1.3382e+03
335	7.8955e-02	2.2781e-01	-6.5832e-02	5.3307e-02	4.8218e+02
336	1.4676e-01	1.6530e-01	-5.9364e-02	7.6144e-02	1.0110e+03
337	1.3631e-01	8.2500e-02	-1.7296e-02	1.7857e-02	1.7464e+03
338	1.0950e+00	1.6049e-01	1.8227e-01	-4.6165e-02	1.5377e+02
339	7.2546e-02	2.0123e-01	-1.0383e-01	3.8915e-02	7.6876e+02
340	1.5972e-01	2.0291e-01	-9.4954e-02	6.8825e-02	5.8471e+02
341	3.6679e-01	6.4358e-02	-1.3420e-01	8.3673e-02	1.7559e+03
342	2.2526e+00	1.7424e-01	-9.5439e-02	-9.6393e-02	1.6812e+03
343	5.9733e-01	9.5283e-03	5.9081e-02	-1.1106e-01	1.6448e+03
344	7.7638e-01	1.2790e-01	7.8879e-02	-5.8829e-02	7.8296e+02
345	5.1101e-01	1.7969e-01	-9.7661e-02	-3.3916e-02	4.6862e+02
346	1.8368e+00	1.7888e-01	1.7488e-02	1.5130e-01	6.7062e+02
347	2.4216e-01	5.0383e-02	-3.9436e-02	8.3520e-02	1.7258e+03
348	3.1903e-01	1.6123e-01	-6.9196e-02	9.6920e-02	8.4776e+02
349	2.3788e-01	2.3178e-01	-5.0966e-02	1.7471e-02	2.8726e+02
350	2.4151e-01	1.7952e-02	-6.1841e-02	-7.2470e-02	1.8994e+03
351	1.6487e-01	1.4028e-01	-1.0642e-01	6.3762e-02	1.1660e+03
352	2.1481e+00	3.0805e-01	-1.3938e-01	-1.8840e-02	3.2046e+02
353	2.6837e-01	3.7867e-02	3.4452e-02	5.3489e-02	1.8946e+03
354	3.1726e-01	2.3652e-01	1.3400e-02	-3.8433e-02	9.6897e+01
355	3.6851e-01	1.6440e-01	-1.0441e-02	-1.0009e-01	8.4670e+02
356	4.5723e-01	6.7044e-05	5.9108e-02	-1.3861e-01	1.9572e+03
357	7.2416e-02	2.1774e-01	-4.0973e-02	9.8634e-02	6.0466e+02
358	4.9603e-01	-1.1211e-03	-8.3795e-02	-1.7012e-01	2.0218e+03
359	6.1507e-02	5.9160e-02	-5.5627e-02	-5.7608e-03	2.0567e+03
360	2.1619e-01	7.7784e-03	-7.8436e-02	5.1663e-02	1.8113e+03
361	2.0170e-01	1.9352e-01	-1.2720e-01	7.9097e-02	6.9923e+02
362	7.3629e-02	1.5741e-01	-1.6299e-02	8.5385e-03	1.2314e+03
363	4.3408e-01	1.8306e-01	-1.5208e-01	-8.6260e-02	5.0296e+02
364	1.5279e-01	1.7324e-01	-3.2262e-02	4.0389e-02	8.9236e+02
365	7.5980e-01	1.6060e-01	4.3601e-02	-9.6751e-02	4.4140e+02
366	7.0892e-01	1.0523e-01	6.8031e-02	-4.6004e-02	1.1015e+03
367	4.3492e-01	1.0600e-01	-7.2543e-02	-2.1401e-01	1.2977e+03
368	3.0713e-01	1.3246e-01	-1.9614e-01	9.4182e-02	1.1620e+03
369	1.1091e-01	7.4039e-02	-7.6815e-02	1.5313e-02	1.8325e+03
370	7.2925e-01	1.4032e-01	1.2483e-01	-1.0046e-01	6.4694e+02
371	1.1060e-01	1.8091e-01	-9.0876e-02	6.8037e-02	9.3811e+02
372	7.5244e-01	1.9130e-01	3.3067e-02	-7.5155e-02	1.3938e+02
373	2.1159e-02	2.0967e-01	-4.4116e-02	1.6698e-01	7.5619e+02
374	1.0966e-01	1.4455e-02	-4.2941e-02	-4.1564e-02	2.1197e+03
375	5.7138e-01	3.5286e-02	7.4465e-02	4.0975e-02	1.8389e+03
376	9.1584e-01	1.2786e-01	8.4329e-02	-7.2330e-02	5.9849e+02
377	5.0856e-02	1.5692e-01	-3.5965e-02	4.0278e-02	1.2256e+03
378	3.4275e-01	9.0952e-02	-1.1217e-01	-3.0869e-02	1.5539e+03
379	4.5978e-01	6.1440e-02	3.9305e-02	-6.1032e-02	1.7159e+03
380	1.8864e-01	1.0982e-01	-1.9988e-02	3.4107e-02	1.3813e+03
381	1.1745e+00	1.5969e-01	3.2311e-01	5.9260e-03	3.5798e+02
382	1.1519e+00	1.4667e-01	3.3831e-01	-4.8405e-02	3.5582e+02
383	7.2637e-01	1.7727e-01	9.9019e-02	-6.4858e-02	3.2889e+02
384	4.0316e-01	2.2907e-01	5.0508e-02	-8.0653e-02	9.4929e+01
385	1.2320e-01	1.2956e-02	-1.0938e-02	-4.9759e-02	2.1051e+03
386	-2.9715e-03	1.5373e-02	2.1790e-02	-4.1106e-02	1.7114e+03
387	2.9054e-01	2.1115e-01	-3.0117e-02	1.8101e-02	4.0897e+02
388	1.2057e-01	2.1577e-01	-5.5734e-02	5.3258e-02	5.6006e+02
389	3.5714e-01	2.3694e-01	-7.0196e-02	-1.0122e-02	7.2251e+01
390	4.3209e-02	8.2557e-02	-2.7834e-02	5.2415e-02	1.8448e+03
391	3.3599e-01	1.8213e-01	-3.6390e-02	-3.1811e-02	5.9648e+02
392	1.9107e-02	1.6793e-02	-1.0004e-01	1.7911e-01	1.9548e+03
393	4.0804e-01	1.6236e-01	-7.2748e-02	-1.9106e-01	7.1427e+02
394	2.1641e-01	2.4992e-01	-5.8842e-02	6.9477e-05	1.7117e+01
395	8.0092e-01	1.2071e-01	4.6040e-02	-8.3519e-02	7.9999e+02
396	4.3721e-02	2.2316e-01	1.0484e-04	1.7255e-01	6.0952e+02
397	2.3170e-02	9.7091e-02	-3.9748e-02	2.7552e-02	1.8157e+03
398	1.7463e-01	2.3142e-02	-2.2642e-02	4.3855e-02	1.9758e+03
399	-1.4480e-03	9.3210e-02	1.0549e-01	7.2195e-02	1.7799e+03
400	6.1484e-03	3.2912e-02	-4.7511e-02	-7.6678e-02	1.9768e+03
401	7.0987e-01	2.0562e-02	9.5107e-02	-2.9823e-02	1.5215e+03
402	7.6390e-02	4.3959e-02	-6.7478e-02	-2.3137e-02	2.1507e+03
403	5.2646e-02	1.2112e-01	-2.6240e-02	5.7491e-02	1.5654e+03
404	1.8873e-01	7.7799e-02	-4.0164e-02	2.0680e-02	1.6745e+03
405	3.8973e-01	1.9425e-01	4.9600e-02	-1.2103e-01	4.2381e+02
406	8.6115e-02	3.8583e-02	-5.4081e-02	5.7208e-02	2.0453e+03
407	5.1017e-01	-6.9587e-04	-1.5156e-02	4.2464e-02	2.1780e+03
408	3.0211e-01	7.4517e-02	-1.8477e-01	1.3789e-01	1.6362e+03
409	4.3978e-01	3.2760e-02	7.1606e-02	-1.8857e-01	2.0336e+03
410	6.1807e-01	1.3862e-01	2.8014e-02	-4.6555e-02	7.9036e+02
411	2.3017e-01	9.5802e-02	-1.1353e-01	1.5111e-02	1.4679e+03
412	9.6371e-03	1.9733e-01	-3.9920e-03	5.8419e-02	8.7446e+02
413	2.7292e-02	-6.3412e-04	-1.3982e-01	1.2490e-01	2.4134e+03
414	3.6890e-01	1.2915e-01	-4.6672e-02	-1.0710e-01	1.1720e+03
415	3.8123e-01	1.2816e-01	-1.1079e-01	-1.4723e-01	1.1276e+03
416	1.2452e-01	2.4553e-01	-7.7558e-02	7.0291e-02	2.5397e+02
417	2.3066e-01	2.9039e-02	7.0893e-02	4.7891e-02	1.9187e+03
418	2.4904e-01	2.3514e-01	-1.3531e-02	1.0462e-02	2.5362e+02
419	1.1209e-01	1.9641e-01	-1.1118e-01	1.2608e-02	7.4973e+02
420	8.6531e-02	2.0351e-01	-4.3558e-02	8.0977e-02	7.4365e+02
421	2.8096e-02	2.7076e-01	-4.3441e-02	1.5022e-01	4.7383e+01
422	8.9813e-01	1.4249e-01	5.6707e-02	-2.0167e-02	4.9056e+02
423	3.4008e-01	9.7828e-02	-1.4259e-01	3.6313e-02	1.4957e+03
424	1.6366e-01	1.2867e-01	-6.8960e-02	4.9630e-02	1.3002e+03
425	3.0876e-01	-1.1263e-04	1.2395e-02	7.2056e-03	1.9727e+03
426	2.9703e-01	5.7098e-02	-1.0251e-01	1.3431e-01	1.8989e+03
427	8.7863e-02	2.3417e-01	-1.8541e-02	6.8287e-02	3.9592e+02
428	5.0019e-02	7.7639e-02	-4.2553e-03	3.8850e-02	1.8880e+03
429	3.0904e-01	1.5670e-01	-5.5236e-02	5.8168e-02	9.6248e+02
430	9.7822e-01	2.8562e-03	2.9768e-02	2.8446e-02	1.4205e+03
431	1.2216e-01	5.2405e-02	1.6185e-03	1.2606e-02	1.9643e+03
432	4.0579e-01	1.3324e-01	-2.5590e-02	-2.4019e-01	1.0039e+03
433	1.3013e-01	2.6249e-01	-3.6856e-02	7.9392e-02	8.6934e+01
434	1.4996e-01	1.9830e-01	-8.7686e-02	5.8511e-02	6.6736e+02
435	5.1170e-01	1.2658e-01	-2.2379e-02	3.9490e-03	1.0378e+03
436	8.6828e-01	2.1855e-02	6.5058e-02	-7.3130e-02	1.3731e+03
437	1.0169e-01	1.8608e-01	-9.1668e-02	4.8681e-02	9.0904e+02
438	2.5907e-01	2.4544e-01	-2.4828e-02	-4.3615e-02	1.2262e+02
439	3.7450e-01	2.3370e-01	1.7529e-02	-3.4523e-02	8.6554e+00
440	6.5643e-01	8.4206e-02	9.9463e-03	-6.1413e-02	1.3769e+03
441	3.1291e-01	5.4424e-02	-1.5806e-01	8.9726e-02	1.8843e+03
442	7.1044e-01	9.0781e-02	4.3975e-02	-7.0567e-02	1.2024e+03
443	1.5017e-01	7.1086e-02	-1.4516e-02	1.8419e-02	1.8247e+03
444	4.5857e-01	1.0461e-01	-6.2183e-02	-1.9300e-01	1.3178e+03
445	1.2528e+00	1.3243e-01	2.9797e-01	-2.8965e-02	4.4342e+02
446	1.5501e-01	2.0718e-01	-1.5485e-01	9.3383e-02	5.8451e+02
447	4.5122e-02	1.1193e-02	-6.5949e-03	-4.2126e-02	2.3603e+03
448	3.3007e-02	-9.8111e-03	1.4315e-01	5.3907e-02	2.0027e+03
449	1.6332e-01	5.7030e-03	-9.6110e-03	-6.2488e-02	2.1058e+03
450	1.5528e-02	2.1574e-01	6.7483e-02	1.1060e-01	5.6584e+02
451	1.2067e-02	2.4425e-01	-3.9164e-02	1.0418e-01	2.3434e+02
452	2.8173e-01	-7.0120e-03	-2.3895e-01	5.6688e-02	2.4843e+03
453	1.4711e-01	4.8204e-02	4.6461e-02	2.3300e-02	1.9586e+03
454	1.9411e-01	7.2403e-02	1.0229e-02	4.0003e-02	1.6566e+03
455	4.7803e-02	1.6873e-01	-6.5246e-02	8.4513e-02	1.1064e+03
456	1.8839e-01	1.6585e-01	-1.2629e-01	5.4267e-02	9.0023e+02
457	1.5682e-01	4.8087e-02	-5.1028e-02	5.6220e-02	1.8938e+03
458	1.3064e-01	5.8170e-04	5.1722e-02	7.3507e-02	2.1394e+03
459	4.3285e-02	5.0176e-02	1.1810e-02	6.9195e-02	2.0175e+03
460	3.9304e-02	1.3438e-01	-1.1723e-01	6.4729e-02	1.4871e+03
461	3.8148e-01	2.3292e-01	-3.1238e-02	-6.1286e-02	3.0927e+01
462	6.3147e-02	2.6409e-01	-7.7957e-02	1.4334e-01	2.2947e+02
463	5.1615e-02	9.2270e-02	-5.1375e-03	4.7826e-02	1.8428e+03
464	1.1741e-01	1.0460e-01	-5.6105e-02	1.0225e-02	1.5967e+03
465	3.6587e-02	1.8657e-01	-5.0491e-02	4.0794e-02	9.6294e+02
466	2.6670e-02	1.8142e-01	1.2140e-02	1.0916e-01	1.0151e+03
467	3.7071e-01	1.4694e-01	-3.5742e-02	-1.1145e-01	9.5734e+02
468	1.8411e-02	3.9994e-02	-3.1877e-02	8.4019e-02	1.9377e+03
469	2.9989e-01	2.2438e-01	3.0178e-02	-2.9061e-02	2.3783e+02
470	3.8628e-02	4.2026e-02	-4.4272e-02	-1.2830e-01	2.1156e+03
471	2.7346e-01	2.3678e-02	-6.0987e-02	4.0017e-02	1.9936e+03
472	3.7551e-02	1.6870e-01	-8.0998e-03	7.1535e-02	1.1432e+03
473	2.8646e-01	2.4483e-01	1.5156e-02	-9.3697e-03	0.0000e+00
474	1.1190e-01	5.3688e-02	1.7768e-02	1.6691e-02	1.9411e+03
475	4.0024e-02	2.1818e-01	5.6105e-02	7.8958e-02	6.0937e+02
476	7.2495e-01	9.8563e-02	7.9622e-02	-1.1750e-01	1.1039e+03
477	3.4118e-01	2.0965e-01	6.2271e-02	-1.6722e-02	3.7695e+02
478	2.7883e-01	2.1662e-01	4.5663e-03	2.0353e-02	4.0857e+02
479	3.0586e-01	2.2092e-01	4.1322e-02	-4.4815e-02	2.7527e+02
480	3.6725e-01	3.2320e-02	-1.4758e-01	1.0543e-01	1.9997e+03
481	5.5041e-01	2.1355e-01	-5.9121e-02	-3.6509e-02	6.3850e+01
482	4.9003e-01	8.6312e-02	1.9305e-02	2.2376e-02	1.4497e+03
483	1.7176e-01	3.5174e-02	-7.7371e-02	7.1688e-04	1.9438e+03
484	1.7952e-01	2.5677e-01	-7.1299e-02	5.5261e-02	9.4493e+01
485	1.4074e-01	7.3882e-02	-3.9580e-02	2.5262e-02	1.7923e+03
486	3.8383e-01	1.0213e-01	-1.1414e-02	-8.1429e-03	1.3827e+03
487	3.2449e-01	1.2408e-01	-1.4444e-01	3.6190e-02	1.2334e+03
488	2.9103e-01	1.9301e-01	-2.3593e-02	6.6267e-02	5.6907e+02
489	2.1615e-01	7.0634e-02	-7.5974e-02	-8.5660e-03	1.7560e+03
490	8.3183e-02	9.2096e-02	4.4333e-02	1.4553e-02	1.7835e+03
491	6.2445e-02	2.5266e-01	-1.4966e-02	1.5369e-01	3.3663e+02
492	7.4569e-02	2.6959e-01	-9.8606e-02	1.6662e-01	0.0000e+00
493	3.1242e-01	1.2980e-01	-1.2108e-01	9.4013e-02	1.1561e+03
494	1.6165e-01	1.5063e-01	-1.2265e-01	-4.2562e-03	1.0739e+03
495	1.7317e-01	2.5710e-01	-6.2494e-02	3.3335e-02	0.0000e+00
496	8.6519e-01	1.1594e-01	7.6762e-02	-6.8372e-02	7.1670e+02
497	6.1800e-02	1.3188e-01	-1.1150e-01	-2.9013e-03	1.4623e+03
498	5.0781e-02	2.4698e-01	1.0169e-02	1.4932e-01	3.0212e+02