variables="k","x","y","vx","vy","pressure"
zone i=8064 j=1
0	4.4149e-01	1.0833e-01	2.2245e-01	-2.0000e-01	1.2113e+03
1	3.1660e-01	2.3088e-01	3.3910e-01	-1.0506e-01	1.2206e+02
2	4.7268e-02	1.5777e-01	2.1348e-02	-6.6671e-02	1.0069e+03
3	5.1190e-01	-1.3471e-03	1.9158e-01	6.8675e-02	1.9178e+03
4	3.4676e-02	1.9745e-01	1.0138e-01	-9.8232e-02	4.3958e+02
5	7.8871e-01	1.0572e-01	2.5872e-01	-5.7603e-02	6.9172e+02
6	1.8519e-01	2.2693e-01	1.2260e-01	-1.1821e-01	2.8798e+02
7	1.2905e-01	1.6225e-01	8.5958e-02	-7.9572e-02	9.1118e+02
8	-4.0466e-03	3.8015e-02	3.6922e-02	-1.1392e-02	2.2890e+03
9	6.4126e-01	1.9008e-01	2.9388e-01	-2.5997e-02	1.1921e+02
10	1.5190e-01	2.4411e-01	1.5349e-01	-1.1600e-01	-3.0391e+01
11	3.8931e-01	9.5618e-02	8.7301e-02	5.7912e-02	1.4561e+03
12	3.4168e-01	9.3989e-02	1.2450e-01	1.0302e-01	1.6087e+03
13	5.4409e-01	1.8643e-01	9.0946e-02	1.6860e-02	2.4977e+02
14	9.1048e-01	4.1526e-02	1.7663e-01	1.8930e-02	9.9516e+02
15	3.8375e-01	1.0341e-01	1.4450e-01	3.6146e-02	1.3729e+03
16	3.4164e-01	1.3429e-01	1.3625e-01	8.6570e-02	1.0140e+03
17	1.0247e+00	8.4726e-02	1.6661e-01	4.8769e-02	7.9061e+02
18	1.4458e+00	2.1819e-01	-2.3161e-02	3.0477e-01	7.6499e+00
19	2.4926e-02	2.0745e-01	-6.2341e-03	-1.6013e-01	4.2651e+02
20	4.1997e-01	1.0353e-01	1.5178e-01	-1.4728e-01	1.3406e+03
21	2.2885e-01	2.4176e-01	2.0825e-01	-1.0674e-01	0.0000e+00
22	2.3884e-01	3.2476e-02	1.2242e-01	-8.5697e-03	1.8465e+03
23	1.7865e-01	2.2087e-01	1.9202e-01	-8.0616e-02	3.4686e+02
24	9.4828e-01	5.8985e-02	1.9702e-01	-1.4943e-02	9.5896e+02
25	-1.5528e-03	1.6828e-01	9.4689e-02	-1.6518e-01	9.9035e+02
26	1.4523e-01	2.2436e-02	2.3090e-02	-5.4974e-02	1.9816e+03
27	1.4405e-01	1.0052e-01	1.5355e-01	-1.3622e-01	1.4325e+03
28	3.3280e-01	1.1200e-02	1.8027e-01	4.1639e-02	2.1133e+03
29	4.2516e-01	1.7634e-01	2.5471e-01	-1.0222e-02	5.9932e+02
30	-2.3563e-03	1.0985e-01	3.7306e-01	-1.3649e-01	1.6307e+03
31	1.7461e-01	1.0549e-01	1.1723e-01	-1.0088e-01	1.3642e+03
32	2.4613e-01	2.3637e-01	2.0539e-01	-7.1793e-02	2.9688e+01
33	4.8661e-01	2.1138e-01	2.5473e-01	1.5114e-02	1.0042e+02
34	1.0363e+00	4.9678e-02	2.1767e-01	-3.0310e-02	1.1077e+03
35	1.1551e+00	1.5140e-01	1.7866e-01	7.5897e-02	2.1923e+02
36	2.6386e-01	1.0376e-01	1.7292e-01	-1.0483e-01	1.3511e+03
37	1.3980e+00	2.0046e-01	8.5080e-02	2.6245e-01	2.1159e+02
38	1.0300e+00	9.9758e-02	2.1343e-01	-8.2517e-03	7.2148e+02
39	9.8407e-01	1.0163e-01	1.8090e-01	1.3843e-02	7.0326e+02
40	4.3753e-01	1.9049e-01	2.4042e-01	-5.4317e-02	2.9706e+02
41	1.0828e-01	1.4691e-01	1.2313e-01	-7.1498e-02	1.0768e+03
42	3.0407e-01	2.2637e-02	1.4440e-01	7.6440e-02	2.0010e+03
43	1.0675e+00	7.2869e-02	1.5833e-01	4.5834e-02	9.4963e+02
44	4.0544e-01	1.5252e-01	2.2609e-01	-7.4538e-02	8.2632e+02
45	1.4274e+00	2.1188e-01	1.7983e-03	3.3056e-01	9.1402e+01
46	3.2424e-01	2.3078e-01	2.9639e-01	-6.5777e-02	0.0000e+00
47	4.2768e-01	2.0211e-01	3.0246e-01	-2.9812e-02	9.1168e+01
48	7.2970e-02	2.4427e-01	9.5937e-02	-1.6247e-01	-7.2275e+00
49	4.2915e-01	1.5460e-01	2.1785e-01	-9.0061e-02	7.6306e+02
50	1.2113e+00	1.4680e-01	2.0671e-01	1.0231e-01	3.3979e+02
51	9.0791e-02	1.8667e-01	3.8001e-02	-1.3043e-01	6.4782e+02
52	1.7220e-01	7.4199e-02	7.5468e-02	-5.2262e-02	1.6346e+03
53	3.7243e-02	2.3703e-01	-2.9023e-02	-1.1938e-01	9.9548e+01
54	2.0460e-01	1.8916e-01	8.7305e-02	-1.3641e-01	5.7045e+02
55	2.5452e-01	1.5468e-01	1.0114e-01	-6.2861e-02	8.9254e+02
56	5.5763e-01	1.1173e-01	1.7287e-01	8.1472e-02	1.1333e+03
57	3.7565e-01	1.0022e-01	1.2491e-01	-4.6808e-03	1.4590e+03
58	1.4949e+00	2.3899e-01	-2.8846e-02	3.0872e-01	1.3841e+02
59	4.5420e-01	9.5150e-02	1.2494e-01	-2.0786e-01	1.3055e+03
60	5.3341e-02	2.4538e-01	5.4930e-02	-1.9484e-01	-3.1374e-01
61	1.2087e+00	1.7199e-01	1.2332e-01	7.3311e-02	4.1274e+01
62	1.0493e+00	8.0392e-02	1.6654e-01	-2.8404e-02	8.6887e+02
63	2.2751e-01	2.1122e-01	1.6181e-01	-7.5571e-02	3.7182e+02
64	3.4487e-01	-1.5073e-02	3.4865e-02	1.4924e-02	2.4440e+03
65	-7.0853e-03	-6.2455e-04	-1.0429e-01	1.1448e-02	3.5002e+03
66	3.0700e-02	-1.1742e-02	-7.4664e-02	1.7199e-01	1.7974e+03
67	1.0582e-01	2.1154e-01	9.1860e-02	-1.9781e-01	4.0440e+02
68	5.6878e-02	5.6721e-02	3.7255e-02	-4.8635e-02	1.9133e+03
69	8.5941e-02	7.6564e-02	7.7966e-02	-3.7635e-02	1.8525e+03
70	3.0190e-02	1.5202e-01	5.5644e-02	-1.1236e-01	1.0483e+03
71	5.7950e-01	-1.5605e-03	1.5863e-01	7.2364e-02	3.0147e+03
72	6.5960e-01	1.1745e-01	1.6874e-01	-1.8979e-02	8.1118e+02
73	2.5293e-01	-1.1089e-03	1.3812e-01	1.9606e-01	1.9794e+03
74	1.5850e-01	1.1265e-01	9.8540e-02	-1.7441e-01	1.3538e+03
75	1.4810e+00	2.3119e-01	-7.7921e-02	3.0975e-01	1.4192e+02
76	6.4788e-01	1.2336e-01	1.9017e-01	6.0415e-02	7.9457e+02
77	3.3674e-01	1.9931e-01	2.8626e-01	-3.4109e-02	4.0381e+02
78	4.1868e-01	1.3898e-01	2.3865e-01	-9.1961e-02	1.0563e+03
79	1.2885e-01	1.4332e-01	1.2142e-01	-6.3402e-02	1.0569e+03
80	3.9137e-01	1.5705e-02	1.7749e-01	-7.1460e-03	1.9984e+03
81	5.0190e-01	6.7307e-02	3.2725e-01	-7.3680e-02	1.7072e+03
82	1.3995e-01	2.1669e-01	8.4063e-02	-8.9286e-02	3.3955e+02
83	1.4885e+00	2.1592e-01	-5.1315e-02	3.0371e-01	1.6056e+02
84	9.6971e-02	2.4477e-01	7.1781e-02	-1.8656e-01	1.4011e+02
85	1.1865e+00	1.6294e-01	1.1953e-01	5.3471e-02	1.0192e+02
86	6.7477e-02	1.1392e-01	5.9128e-03	-8.7296e-02	1.4042e+03
87	9.4149e-02	1.3699e-01	3.0695e-02	-8.6100e-02	1.1314e+03
88	1.2990e-01	2.2834e-01	1.1409e-01	-1.1635e-01	2.6194e+02
89	6.1761e-01	7.8311e-02	2.5683e-01	3.7418e-02	1.3776e+03
90	9.8468e-01	1.6504e-01	1.9067e-01	2.7315e-02	9.9936e+01
91	4.2484e-01	1.9356e-01	2.5332e-01	-4.0444e-02	3.1338e+02
92	1.9417e-01	1.3689e-01	1.0496e-01	-1.3163e-01	1.0650e+03
93	3.9903e-01	1.9931e-01	3.0635e-01	-4.1195e-02	2.6614e+02
94	1.2315e+00	1.5104e-01	2.3665e-01	1.1862e-01	2.8778e+02
95	5.7422e-02	7.6597e-02	3.2593e-02	-5.3632e-02	1.8133e+03
96	1.0834e+00	7.3813e-03	7.9028e-02	7.7126e-02	1.3088e+03
97	2.8086e-01	2.3496e-01	3.0232e-01	-1.2731e-01	2.2795e+02
98	2.9611e-01	1.3207e-01	8.9418e-02	2.4317e-02	1.0669e+03
99	9.9357e-01	1.0382e-01	1.9724e-01	-4.4034e-02	6.8388e+02
100	4.3972e-01	6.2724e-02	1.6307e-01	-9.9349e-02	1.7318e+03
101	4.2622e-01	7.9492e-02	1.5191e-01	-9.9527e-02	1.5161e+03
102	1.2054e+00	1.5889e-01	1.4963e-01	8.0013e-02	2.6744e+02
103	1.3993e+00	1.3370e-01	-7.9836e-03	1.3997e-01	8.1488e+02
104	3.3437e-02	1.8844e-01	9.9567e-02	-1.4954e-01	5.9036e+02
105	5.7987e-01	5.1712e-02	1.3697e-01	1.1498e-01	1.7942e+03
106	1.9633e-01	2.2307e-01	1.7945e-01	-8.6938e-02	2.9092e+02
107	5.3414e-01	1.7753e-01	1.0963e-01	1.2929e-02	4.0354e+02
108	4.0254e-01	8.4229e-02	1.1480e-01	-5.8498e-02	1.5474e+03
109	1.0403e+00	1.5256e-01	2.2389e-01	4.5033e-02	3.2476e+02
110	1.3484e+00	1.4451e-01	1.6549e-01	1.3681e-01	5.1319e+02
111	1.2120e+00	1.7073e-01	1.5897e-01	6.7620e-02	8.1478e+01
112	1.3299e-01	2.0981e-01	9.3347e-02	-1.5918e-01	4.3304e+02
113	1.2772e-01	2.4412e-01	1.2331e-01	-2.0168e-01	4.4030e+01
114	3.7493e-01	1.2613e-01	2.0210e-01	1.3103e-02	1.1708e+03
115	2.8872e+00	5.2498e-02	-5.1531e-02	1.0676e-02	2.1406e+03
116	1.0877e+00	1.3563e-01	1.8370e-01	-6.3066e-02	4.2308e+02
117	1.4230e+00	1.5549e-01	9.5635e-03	1.5069e-01	6.8046e+02
118	6.2068e-01	1.2396e-01	1.8466e-01	1.3881e-01	8.8729e+02
119	4.2548e-01	1.1154e-01	1.7311e-01	-1.1289e-01	1.2209e+03
120	1.0410e+00	1.2047e-01	1.6065e-01	3.1047e-02	5.5411e+02
121	3.8574e-01	1.4583e-01	2.2816e-01	-5.3369e-02	9.2567e+02
122	3.5564e-01	2.2691e-01	3.0700e-01	-4.4263e-02	6.6351e+01
123	4.0117e-01	1.3478e-01	2.0715e-01	-5.3668e-02	1.0645e+03
124	1.6432e-01	1.9376e-01	1.3003e-01	-1.1429e-01	5.7674e+02
125	6.2318e-01	2.7285e-02	1.1475e-01	3.9669e-02	1.6425e+03
126	3.0693e-01	1.5188e-01	1.9444e-01	-4.6880e-02	9.3393e+02
127	4.2826e-01	3.1998e-02	2.0148e-01	-2.5925e-03	2.1054e+03
128	1.7925e-01	1.1939e-01	1.1161e-01	-5.8340e-02	1.2672e+03
129	-3.0265e-03	9.1165e-02	1.0901e-01	-1.1189e-01	1.6760e+03
130	9.3135e-01	1.3778e-01	1.4825e-01	7.9737e-03	4.5174e+02
131	4.6626e-01	1.9411e-01	2.5672e-01	1.7390e-02	3.9456e+02
132	2.2645e-01	1.0344e-02	1.6644e-01	-1.6267e-02	1.9104e+03
133	3.3743e-01	-2.0477e-03	1.5526e-01	-2.0107e-01	2.3655e+03
134	4.1210e-02	1.2633e-01	-8.7669e-03	-3.5478e-03	1.2774e+03
135	2.6525e-02	2.2494e-01	-6.4808e-02	-1.1224e-01	3.0936e+02
136	1.2901e-01	2.1446e-01	1.2698e-01	-1.9422e-01	3.9557e+02
137	4.1325e-01	2.1170e-01	2.7416e-01	-4.4892e-02	2.1675e+02
138	3.7795e-01	8.6150e-02	7.4978e-02	1.8195e-02	1.5707e+03
139	4.4197e-01	1.3788e-01	1.4124e-01	-1.1470e-01	8.4620e+02
140	4.2847e-01	1.5219e-01	2.5537e-01	-1.0893e-01	8.0138e+02
141	2.7322e-01	3.6822e-02	1.4397e-01	-9.9734e-02	1.8607e+03
142	1.6803e-02	2.0854e-01	1.2222e-01	-2.2892e-01	3.6488e+02
143	1.6544e-01	5.3303e-02	6.3228e-02	4.4118e-02	1.8236e+03
144	2.7062e-01	1.7771e-01	1.7755e-01	-5.6019e-02	6.8520e+02
145	3.6719e-01	9.2828e-02	1.4241e-01	-5.4013e-02	1.5563e+03
146	9.4970e-01	1.6288e-01	1.9432e-01	7.8901e-02	1.3744e+02
147	8.1951e-02	1.5942e-01	5.5284e-02	-8.9707e-02	9.5866e+02
148	1.7261e+00	2.0645e-01	-3.4301e-01	-1.8162e-03	7.5931e+02
149	8.3031e-01	6.6118e-02	2.0719e-01	-1.7506e-02	1.0032e+03
150	6.4324e-01	4.2701e-02	1.4569e-01	1.4894e-01	1.3656e+03
151	4.4279e-01	1.9539e-01	2.8883e-01	-6.8011e-03	3.1321e+02
152	1.3202e-01	2.0187e-01	1.1601e-01	-1.8604e-01	5.1242e+02
153	7.3617e-01	6.0095e-02	1.5336e-01	-1.4697e-01	1.0983e+03
154	6.5746e-01	1.3364e-01	3.1301e-01	1.9853e-02	5.7418e+02
155	4.3898e-02	2.0008e-02	9.5758e-02	-1.6296e-01	2.1139e+03
156	3.9378e-01	3.7847e-02	1.1454e-01	-5.5512e-03	1.9002e+03
157	3.3215e-01	1.8134e-01	2.7027e-01	-7.2091e-03	6.0676e+02
158	1.5742e+00	1.9770e-01	-2.4188e-01	1.3656e-01	6.2029e+02
159	2.6034e-01	5.0501e-02	2.0211e-01	-5.8405e-02	1.8323e+03
160	7.1780e-01	1.0138e-01	2.2268e-01	7.4173e-03	7.3579e+02
161	1.4222e+00	1.2894e-01	3.3577e-02	1.1528e-01	8.8367e+02
162	1.3716e-01	1.5399e-01	4.4504e-02	-9.5105e-02	9.4601e+02
163	4.6118e-01	2.0991e-01	1.7702e-01	-5.3982e-02	9.0480e+01
164	6.8021e-01	1.6525e-01	2.5560e-01	-3.1449e-02	3.0148e+02
165	4.1794e-01	2.1394e-01	2.7848e-01	-3.5908e-02	1.2790e+02
166	2.9139e-01	2.0268e-01	2.0820e-01	-5.1584e-02	4.5234e+02
167	4.4784e-01	1.4133e-01	2.2665e-01	-1.5518e-01	8.2543e+02
168	2.5295e-01	8.8094e-03	1.5397e-01	2.7469e-02	2.0231e+03
169	1.4212e-01	1.4137e-01	8.7007e-02	-7.5165e-02	1.0667e+03
170	9.8774e-03	2.8559e-02	-6.7188e-02	-1.8752e-02	2.3034e+03
171	5.6869e-01	3.8273e-02	1.5850e-01	1.8854e-02	1.9873e+03
172	3.8632e-01	1.4018e-01	2.4064e-01	1.0737e-03	9.6765e+02
173	1.2096e-01	2.4251e-01	8.2794e-02	-1.8770e-01	8.0198e+01
174	6.2765e-01	1.5993e-01	1.6150e-01	9.8823e-02	4.9774e+02
175	6.9978e-01	5.3072e-02	1.2784e-01	4.9498e-02	1.1660e+03
176	1.4273e+00	7.4238e-02	-1.7138e-01	3.2160e-02	1.4232e+03
177	3.5223e-05	2.2195e-01	-5.6360e-02	-2.5420e-01	2.8759e+02
178	2.3390e-01	8.1296e-02	1.1393e-01	-2.9809e-02	1.5386e+03
179	7.6736e-01	1.7734e-01	2.0147e-01	1.8729e-02	9.1412e+01
180	3.2587e-01	1.4070e-01	1.1621e-01	2.6474e-02	1.0197e+03
181	2.4925e-01	1.3833e-01	9.3359e-02	2.7587e-03	1.0505e+03
182	6.1841e-02	1.5200e-01	5.3546e-02	-1.0838e-01	1.0620e+03
183	1.7901e-02	2.2756e-01	-1.0435e-01	-2.3242e-01	2.1886e+02
184	8.4780e-01	1.3965e-01	1.2507e-01	-6.7709e-03	3.5120e+02
185	4.6704e-01	1.2172e-01	1.9000e-01	-1.0561e-01	1.0607e+03
186	1.3771e+00	1.7333e-01	1.1214e-01	2.2073e-01	3.0898e+02
187	3.4963e-01	2.0222e-01	3.1541e-01	5.4226e-03	3.3945e+02
188	1.6073e-01	9.9155e-02	1.0948e-01	-1.0460e-01	1.4729e+03
189	1.0309e+00	1.0891e-01	1.8260e-01	3.8469e-02	6.1486e+02
190	6.2834e-01	4.7946e-02	1.9396e-01	-6.8362e-02	1.4124e+03
191	6.0230e-01	3.0285e-02	2.2734e-01	-9.2706e-02	1.7309e+03
192	2.9032e-02	1.7975e-01	8.2477e-02	-1.2255e-01	6.9791e+02
193	6.3874e-02	6.1522e-02	5.7853e-02	-6.0052e-02	1.9463e+03
194	9.9085e-02	2.1651e-01	1.1331e-01	-1.3215e-01	3.3187e+02
195	2.4032e-01	1.7095e-02	1.2520e-01	2.8279e-02	1.7946e+03
196	-4.1312e-03	5.5387e-02	2.1465e-01	-3.0184e-02	1.9960e+03
197	1.0974e-02	1.7550e-01	-2.3915e-02	-1.2452e-01	8.2858e+02
198	6.1410e-02	1.0704e-01	1.8905e-02	-6.0015e-02	1.5159e+03
199	1.8432e-01	1.2668e-01	7.7412e-02	-1.1566e-01	1.1673e+03
200	1.6090e-02	8.3890e-02	4.2809e-02	-8.8513e-02	1.7465e+03
201	3.7178e-02	7.2014e-02	8.7817e-02	-7.6061e-02	1.8004e+03
202	1.4672e-01	5.6731e-02	1.0378e-01	1.3428e-02	1.8534e+03
203	2.0265e-01	4.0966e-02	1.5719e-01	-6.1283e-02	1.8388e+03
204	1.0907e-01	5.8335e-02	8.9739e-02	-1.7398e-02	1.9076e+03
205	3.5923e-01	1.2768e-01	1.7384e-01	4.0495e-02	1.1478e+03
206	4.7929e-01	2.0758e-01	2.2175e-01	5.3561e-02	7.8333e+01
207	2.1207e-01	3.8470e-02	1.6490e-01	1.3700e-02	1.8517e+03
208	4.9308e-02	1.9828e-01	4.6612e-02	-5.9844e-02	5.9715e+02
209	7.2365e-02	1.7700e-01	5.2456e-02	-1.1656e-01	7.7866e+02
210	6.9359e-01	1.0463e-01	1.7335e-01	-4.4571e-02	7.5063e+02
211	3.4359e-01	1.6742e-01	1.8954e-01	1.9296e-02	7.4123e+02
212	6.6771e-02	2.4546e-01	5.6117e-02	-1.6439e-01	0.0000e+00
213	2.5982e-01	2.4746e-02	1.6354e-01	-7.7835e-02	1.9754e+03
214	3.5410e-02	2.4274e-01	3.7750e-02	-2.2481e-01	5.7851e+01
215	1.0305e-01	1.8415e-01	7.8090e-02	-1.3937e-01	7.0177e+02
216	1.1242e+00	1.6692e-01	1.8061e-01	6.5113e-02	1.4730e+02
217	1.1489e-01	1.0555e-01	4.3513e-02	-5.6511e-02	1.4626e+03
218	3.7440e-01	2.1705e-01	3.6829e-01	-5.8360e-02	1.3246e+02
219	6.5458e-01	6.1820e-02	1.6379e-01	-1.8488e-02	1.3299e+03
220	2.1462e-01	9.2839e-02	1.7015e-01	-5.2706e-03	1.4521e+03
221	3.0341e-01	6.4407e-02	9.4804e-02	6.3126e-02	1.6464e+03
222	8.5397e-02	1.4665e-01	5.1442e-02	-7.5737e-02	1.1236e+03
223	2.6909e-01	8.7926e-02	1.2324e-01	2.5611e-02	1.4760e+03
224	3.8981e-01	8.8453e-04	4.0672e-02	3.6675e-02	2.2859e+03
225	5.5420e-01	2.0013e-01	2.3633e-01	7.1634e-03	4.9164e+01
226	4.6065e-02	2.2806e-01	2.5146e-02	-1.0541e-01	3.9498e+02
227	1.3824e+00	1.9941e-01	1.5263e-01	2.6681e-01	0.0000e+00
228	7.3746e-01	8.4317e-02	1.6664e-01	-3.6175e-02	9.3107e+02
229	4.2675e-01	9.4193e-02	1.4112e-01	-1.4226e-01	1.4270e+03
230	1.7159e-01	2.2784e-01	1.4603e-01	-1.5844e-01	1.7260e+02
231	6.1569e-02	1.9528e-01	9.0785e-02	-3.7814e-03	5.9559e+02
232	1.3576e-01	1.2839e-01	1.1281e-01	-1.2742e-01	1.2083e+03
233	7.6418e-01	1.3519e-01	1.4468e-01	-9.7790e-02	3.6601e+02
234	1.4291e+00	1.9690e-01	6.4235e-02	2.1337e-01	1.6423e+02
235	3.3281e-01	9.2896e-02	2.2051e-01	8.3443e-02	1.4820e+03
236	1.9171e-01	1.8551e-01	1.4401e-01	-1.0344e-01	6.5729e+02
237	7.1796e-01	1.3695e-01	2.6158e-01	-4.9483e-02	4.3234e+02
238	1.0091e-01	2.9067e-02	-1.0511e-02	9.7882e-03	2.0227e+03
239	8.7901e-01	1.3334e-01	1.6761e-01	2.5070e-02	4.1785e+02
240	6.1536e-01	2.3065e-02	1.5972e-01	5.2991e-02	1.5613e+03
241	3.3065e-01	1.5594e-01	2.0383e-01	6.3353e-02	8.2942e+02
242	1.0914e+00	1.1766e-01	1.5670e-01	-7.2095e-02	5.7518e+02
243	1.0084e+00	7.8208e-02	1.9200e-01	7.7683e-02	8.6697e+02
244	2.1566e-01	2.1784e-01	1.6459e-01	-1.2598e-01	3.2209e+02
245	8.6401e-02	2.2403e-01	1.3654e-01	-2.0879e-01	2.8763e+02
246	4.0024e-01	1.6894e-01	2.5761e-01	-3.2141e-02	7.1477e+02
247	8.5186e-01	4.4175e-02	1.8390e-01	-6.7287e-02	1.0925e+03
248	1.5426e+00	2.3394e-01	-1.2961e-01	3.0367e-01	2.5371e+02
249	2.0435e-01	7.5416e-02	1.1971e-01	-3.3880e-02	1.6131e+03
250	1.3364e-01	6.4900e-02	7.8290e-02	-3.5897e-02	1.8359e+03
251	4.1449e-01	1.6725e-01	2.8453e-01	-1.0980e-01	6.7013e+02
252	1.5225e+00	2.4243e-01	-9.2612e-02	3.0878e-01	2.3324e+02
253	7.1684e-02	1.9915e-01	5.9955e-02	-1.0503e-01	5.3064e+02
254	2.3041e-01	9.6130e-02	1.3972e-01	-9.4322e-02	1.3823e+03
255	2.9835e-01	6.1129e-02	1.1371e-01	4.6343e-02	1.6826e+03
256	3.9859e-01	1.8030e-01	2.8682e-01	-3.8712e-02	5.5432e+02
257	1.2433e-01	1.1595e-03	3.3036e-02	1.4300e-03	1.8649e+03
258	2.3470e-01	2.3923e-01	2.0619e-01	-9.3948e-02	4.8039e+01
259	1.0652e-02	1.3756e-01	5.5844e-02	-1.4749e-01	1.1743e+03
260	2.6947e-01	2.3692e-01	2.4078e-01	-1.3720e-01	0.0000e+00
261	1.1394e-01	2.8829e-02	3.4966e-02	-3.8537e-02	1.9702e+03
262	4.4845e-01	1.5652e-01	1.4309e-01	1.5906e-03	5.6329e+02
263	1.8253e-01	2.3814e-01	1.7328e-01	-7.3748e-02	1.7900e+01
264	8.4293e-02	1.1230e-01	5.3594e-02	-4.1002e-02	1.4775e+03
265	1.7123e-04	2.0152e-01	-2.6355e-02	-1.8327e-01	4.6024e+02
266	1.0185e-02	2.3855e-01	4.4016e-02	-1.5797e-01	1.7709e+02
267	2.3246e-02	1.1125e-01	6.4711e-02	-7.8779e-02	1.4694e+03
268	2.1922e-01	7.7851e-02	1.7123e-01	-1.5703e-02	1.6032e+03
269	3.4282e-01	1.9095e-01	2.9346e-01	8.5104e-03	4.6185e+02
270	1.6202e-02	1.7561e-01	2.8075e-02	-1.7106e-01	8.0398e+02
271	5.7543e-02	1.3205e-01	4.1212e-02	-7.7854e-02	1.2668e+03
272	4.3150e-01	1.7522e-01	2.0418e-01	-6.4013e-02	4.8175e+02
273	3.6883e-02	1.1511e-01	5.4679e-02	-7.7128e-02	1.4117e+03
274	5.9793e-01	2.3446e-02	6.4111e-02	-2.8493e-02	1.8349e+03
275	6.5544e-02	1.6704e-01	5.2924e-02	-7.0307e-02	8.8717e+02
276	7.2992e-01	1.0536e-01	2.5992e-01	-8.6232e-02	6.7749e+02
277	7.0278e-01	8.7890e-02	1.4294e-01	1.0175e-02	8.8504e+02
278	1.3799e-01	1.1611e-01	9.1922e-02	-9.1101e-02	1.3329e+03
279	3.7210e-01	1.6538e-01	2.3295e-01	-5.8201e-02	7.2657e+02
280	8.8824e-01	2.4830e-02	1.8531e-01	-3.6097e-02	1.2209e+03
281	3.9529e-01	1.0077e-01	7.5227e-02	-3.0647e-03	1.3916e+03
282	3.8924e-01	1.9165e-01	2.9551e-01	-5.2439e-02	4.4923e+02
283	1.1346e-01	2.0700e-01	9.6160e-02	-1.4277e-01	4.3158e+02
284	3.9133e-01	2.1126e-02	4.3275e-02	9.2926e-02	2.0532e+03
285	1.4493e-01	2.3463e-01	1.3855e-01	-1.0961e-01	1.5650e+02
286	1.7060e-01	2.4321e-01	1.5656e-01	-1.5614e-01	0.0000e+00
287	4.7770e-02	2.0915e-01	4.3877e-02	-7.4154e-02	4.2337e+02
288	1.4846e+00	1.3877e-01	-8.2186e-02	1.4923e-01	9.1699e+02
289	7.2042e-02	6.9797e-02	6.4132e-02	-1.1674e-03	1.7611e+03
290	5.7297e-01	1.5801e-01	1.7848e-01	5.9898e-03	6.0110e+02
291	1.1252e-01	1.1235e-01	6.4862e-02	-5.9750e-02	1.3990e+03
292	6.3984e-01	1.5388e-02	1.9345e-01	9.9421e-02	1.7036e+03
293	2.1862e-01	2.4087e-01	1.9924e-01	-1.1091e-01	2.3670e+01
294	6.3903e-01	5.4688e-02	1.5208e-01	1.3345e-01	1.3260e+03
295	1.9621e-01	9.2473e-02	1.0836e-01	-1.2919e-01	1.4977e+03
296	4.6045e-01	7.4392e-02	1.6808e-01	-9.5928e-02	1.6035e+03
297	2.5358e-01	1.2618e-01	1.3973e-01	-7.0413e-02	1.1520e+03
298	4.8595e-01	1.9245e-01	1.1874e-01	-8.2182e-03	2.2793e+02
299	1.9089e-01	1.0543e-01	9.7120e-02	-9.8800e-02	1.3531e+03
300	1.4537e-01	7.1206e-02	7.5349e-02	-3.3409e-02	1.7688e+03
301	5.5029e-01	1.7619e-01	1.4869e-01	7.1306e-02	4.9825e+02
302	2.3680e-01	1.8484e-01	1.6253e-01	-1.5297e-02	6.0363e+02
303	9.8921e-02	1.2456e-01	8.5660e-02	-1.2693e-01	1.2881e+03
304	1.2016e+00	1.4540e-01	1.4662e-01	1.2407e-01	2.8665e+02
305	2.4404e-01	2.0372e-01	1.7673e-01	-6.7648e-02	4.2419e+02
306	7.7307e-01	1.0945e-01	2.0954e-01	-4.0866e-02	6.4820e+02
307	2.1983e+00	2.0900e-01	-3.0206e-01	-1.5575e-01	6.3198e+02
308	6.6923e-01	1.1124e-01	2.5184e-01	9.4171e-02	7.8293e+02
309	1.6042e-01	2.4341e-01	1.9605e-01	-1.5083e-01	1.9939e+02
310	7.3448e-01	4.7553e-02	1.8374e-01	-3.7668e-02	1.1470e+03
311	2.2024e-01	2.8710e-02	1.3069e-01	-5.7070e-02	1.9787e+03
312	7.2513e-01	1.6196e-01	2.5753e-01	-4.7242e-02	2.6596e+02
313	2.7731e-02	1.6373e-01	3.9412e-02	-9.8433e-02	9.4480e+02
314	1.0445e-01	2.4486e-01	1.1951e-01	-1.7383e-01	5.8071e+01
315	1.9420e-01	2.1754e-01	1.1941e-01	-8.5736e-02	3.3249e+02
316	3.3676e-01	1.4956e-01	1.7468e-01	-9.1461e-03	8.8293e+02
317	1.1276e-01	9.1352e-02	1.1738e-01	-8.4872e-02	1.5713e+03
318	9.3637e-01	1.0526e-01	1.8036e-01	4.4898e-02	6.2417e+02
319	4.6361e-01	1.7921e-01	1.0022e-01	-7.6413e-02	3.0106e+02
320	2.0833e-02	7.7377e-03	1.5477e-01	-8.8403e-03	2.4221e+03
321	4.0807e-01	6.2084e-02	7.3272e-02	-7.2682e-02	1.7473e+03
322	9.6417e-02	4.3629e-02	6.3319e-02	1.7075e-02	1.9632e+03
323	1.4837e-01	1.8453e-01	1.0827e-01	-9.1243e-02	6.9854e+02
324	5.9787e-01	-8.0422e-03	2.2493e-01	-1.3312e-01	2.2954e+03
325	4.2364e-02	1.7620e-01	7.9597e-02	-7.6545e-02	8.0604e+02
326	1.8656e-01	2.4303e-01	2.0845e-01	-1.2376e-01	8.1536e+01
327	1.2953e-01	1.3623e-01	1.1562e-01	-1.3927e-01	1.1381e+03
328	1.3096e-01	1.9609e-01	1.0803e-01	-1.4946e-01	5.8010e+02
329	9.4456e-03	1.0185e-01	1.2455e-02	-1.4158e-01	1.5918e+03
330	3.1274e-01	1.0973e-01	8.9221e-02	9.6247e-02	1.3526e+03
331	6.1491e-02	3.0659e-02	5.7221e-02	1.6319e-02	1.8665e+03
332	2.2709e-01	2.9325e-02	1.4350e-01	-6.0002e-02	2.0036e+03
333	4.6365e-02	1.7330e-02	-7.0890e-02	-1.0635e-01	2.0510e+03
334	1.9542e-02	1.3068e-01	-1.3713e-03	-8.3476e-02	1.2077e+03
335	8.1665e-02	1.9316e-01	6.7769e-02	-1.8905e-01	6.0041e+02
336	1.6142e-01	1.6054e-01	8.4673e-02	-1.0659e-01	8.9206e+02
337	1.7171e-01	6.0530e-02	1.1827e-01	-9.9254e-02	1.8160e+03
338	1.1830e+00	1.4964e-01	1.5403e-01	5.7754e-02	3.1592e+02
339	6.3030e-02	1.8469e-01	6.7926e-02	-9.2359e-02	6.5615e+02
340	1.7234e-01	1.9121e-01	1.6375e-01	-1.1592e-01	5.9225e+02
341	3.5865e-01	8.4854e-02	8.5741e-02	4.2386e-02	1.5171e+03
342	2.2078e+00	1.3563e-01	-7.0692e-02	-3.4993e-02	1.1980e+03
343	6.2115e-01	2.2573e-03	1.8748e-01	8.4489e-02	1.9632e+03
344	8.3265e-01	1.1283e-01	1.6645e-01	2.4077e-02	5.4283e+02
345	5.1885e-01	1.6361e-01	1.8115e-01	-5.8215e-02	5.8114e+02
346	1.7496e+00	2.3554e-01	-3.8111e-01	2.6956e-02	4.4980e+02
347	2.4795e-01	8.3418e-02	1.2540e-01	-6.8785e-02	1.5126e+03
348	3.5934e-01	1.6920e-01	2.4696e-01	1.0135e-02	7.0238e+02
349	2.9295e-01	2.1361e-01	2.3476e-01	-1.0073e-01	2.6461e+02
350	2.3727e-01	1.6080e-02	8.5786e-02	-9.5541e-02	1.9021e+03
351	1.7800e-01	1.3250e-01	9.7252e-02	-7.7909e-02	1.1233e+03
352	2.0446e+00	2.7020e-01	-2.4114e-01	-5.1594e-02	8.4499e+01
353	3.3343e-01	6.6340e-02	2.7602e-01	1.1533e-01	1.6576e+03
354	3.8977e-01	2.1924e-01	3.1911e-01	-2.4864e-02	7.1483e+01
355	4.1562e-01	1.2344e-01	2.0893e-01	-6.2861e-02	1.1434e+03
356	4.9025e-01	6.4670e-04	1.5269e-01	-8.4293e-02	1.9216e+03
357	9.5398e-02	2.0194e-01	1.3245e-01	-1.5139e-01	4.6670e+02
358	5.2264e-01	-1.4656e-03	1.8608e-01	-1.7031e-01	2.0269e+03
359	5.6956e-02	4.8790e-02	6.6361e-02	1.6025e-02	1.9279e+03
360	2.5077e-01	4.3044e-02	1.9939e-01	4.3638e-02	1.7619e+03
361	2.0044e-01	2.0644e-01	1.4702e-01	-6.1363e-02	4.6655e+02
362	7.9779e-02	1.3193e-01	6.0706e-02	-1.1085e-01	1.2375e+03
363	4.5821e-01	1.1058e-01	1.9988e-01	-1.7580e-01	1.1081e+03
364	1.7230e-01	1.5119e-01	7.7542e-02	-1.0494e-01	9.6852e+02
365	8.1403e-01	1.3322e-01	2.1014e-01	-3.1685e-03	3.7243e+02
366	7.7004e-01	9.1267e-02	2.4413e-01	-6.0063e-02	7.8825e+02
367	4.5616e-01	4.1452e-02	2.1945e-01	-1.1689e-01	1.9821e+03
368	2.9790e-01	1.5283e-01	1.0876e-01	-1.7941e-02	8.7558e+02
369	1.1670e-01	6.8993e-02	9.3134e-02	-5.3968e-02	1.8158e+03
370	8.1228e-01	9.7304e-02	2.8383e-01	-9.7084e-02	7.4967e+02
371	1.0876e-01	1.7120e-01	2.5890e-02	-7.8983e-02	8.2372e+02
372	8.0860e-01	1.7776e-01	1.7823e-01	3.2898e-02	4.1146e+01
373	1.1055e-02	1.9191e-01	2.1072e-02	-1.4111e-01	5.5004e+02
374	1.1352e-01	1.1423e-03	-1.0438e-01	1.0291e-01	1.8800e+03
375	5.9588e-01	6.5320e-02	1.2078e-01	1.0031e-01	1.5305e+03
376	9.8015e-01	1.0721e-01	1.5815e-01	1.3743e-02	6.2990e+02
377	4.4270e-02	1.3857e-01	1.9494e-02	-1.1237e-01	1.1839e+03
378	3.3295e-01	1.1171e-01	1.4337e-01	1.2701e-01	1.3149e+03
379	5.1694e-01	4.1739e-02	2.2000e-01	-1.1851e-01	1.9900e+03
380	2.0715e-01	9.7013e-02	1.4524e-01	1.1651e-02	1.4243e+03
381	1.3079e+00	1.8231e-01	2.0930e-01	1.4147e-01	3.1193e+01
382	1.2792e+00	1.6261e-01	1.6225e-01	1.5235e-01	2.7149e+02
383	8.0023e-01	1.6285e-01	2.0997e-01	5.2206e-03	1.3324e+02
384	4.7387e-01	2.1289e-01	2.8943e-01	-3.1062e-02	9.7505e+01
385	1.2113e-01	1.8247e-02	3.1902e-02	1.7679e-02	1.9840e+03
386	-3.3018e-03	1.0931e-02	2.4393e-02	-1.2795e-01	3.1015e+03
387	3.5377e-01	2.0970e-01	3.3057e-01	-2.8634e-02	2.5483e+02
388	1.5331e-01	2.0351e-01	1.3883e-01	-1.1090e-01	5.0045e+02
389	3.9582e-01	2.1824e-01	2.7016e-01	-3.3629e-02	0.0000e+00
390	4.1916e-02	5.8811e-02	3.6225e-02	-1.5146e-01	1.9205e+03
391	3.8780e-01	1.7019e-01	2.8179e-01	-1.5013e-02	6.3017e+02
392	4.0238e-02	6.3063e-03	2.2745e-01	-5.4086e-02	1.9240e+03
393	4.2264e-01	7.1497e-02	6.8061e-02	-1.3769e-01	1.6222e+03
394	2.6352e-01	2.3778e-01	2.3520e-01	-9.7654e-02	7.4065e+01
395	8.6548e-01	1.1311e-01	1.9524e-01	2.2346e-03	6.0148e+02
396	6.0979e-02	2.1661e-01	2.9958e-02	-1.4398e-01	3.2033e+02
397	5.6127e-03	8.1479e-02	3.1575e-02	-7.8183e-02	1.7510e+03
398	2.0546e-01	2.9430e-02	1.0672e-01	-5.8488e-03	1.9102e+03
399	-1.6129e-03	7.1651e-02	1.0514e-01	-3.1386e-02	1.9313e+03
400	1.4912e-02	4.6205e-02	-6.9878e-02	2.4505e-02	2.1478e+03
401	7.1286e-01	1.3546e-02	4.5233e-02	9.1391e-02	1.2136e+03
402	8.5138e-02	1.7266e-02	9.0982e-02	-1.0735e-01	2.0051e+03
403	5.9928e-02	9.6546e-02	5.4163e-02	-8.6711e-02	1.6510e+03
404	2.1132e-01	6.1405e-02	1.2878e-01	-7.0285e-02	1.7396e+03
405	4.3104e-01	1.3533e-01	1.6560e-01	-1.4772e-01	9.4343e+02
406	8.7885e-02	4.6987e-02	-2.7497e-02	5.5686e-02	1.9648e+03
407	5.3536e-01	-9.7987e-04	1.3038e-01	4.2420e-02	2.1140e+03
408	2.9156e-01	1.2068e-01	6.1223e-02	5.8743e-02	1.2061e+03
409	4.9517e-01	1.4680e-02	2.7495e-01	-1.6075e-02	1.9582e+03
410	6.5930e-01	1.2560e-01	2.0022e-01	-6.9075e-02	6.5584e+02
411	2.4581e-01	9.3011e-02	1.0799e-01	6.4095e-03	1.4237e+03
412	4.7201e-02	1.8857e-01	1.3049e-01	-7.7645e-02	6.9050e+02
413	4.0869e-02	-1.0125e-03	-1.4394e-01	1.2405e-01	1.8968e+03
414	3.8418e-01	1.1334e-01	1.3228e-01	6.6851e-02	1.2290e+03
415	3.7156e-01	1.1890e-01	1.6468e-01	3.5565e-02	1.2199e+03
416	1.4322e-01	2.2688e-01	1.3118e-01	-1.2885e-01	2.4173e+02
417	2.8140e-01	2.7603e-02	2.1915e-01	-1.5970e-03	1.9244e+03
418	3.0285e-01	2.3136e-01	2.8331e-01	-1.0894e-01	6.7721e+01
419	1.1720e-01	1.6528e-01	7.6592e-02	-1.4495e-01	8.4329e+02
420	1.0079e-01	1.8807e-01	8.3188e-02	-1.4297e-01	6.2823e+02
421	3.5887e-02	2.4157e-01	2.8080e-02	-2.2176e-01	3.5670e+01
422	9.6236e-01	1.3485e-01	2.0026e-01	-2.5536e-02	4.2397e+02
423	3.5457e-01	1.1008e-01	1.6376e-01	5.2752e-02	1.3140e+03
424	1.9296e-01	1.1617e-01	1.3562e-01	-8.9782e-02	1.2239e+03
425	3.5122e-01	-3.7676e-04	8.6393e-02	7.4218e-03	2.2261e+03
426	2.7977e-01	7.0468e-02	1.4350e-01	2.9054e-02	1.5826e+03
427	1.1108e-01	2.0231e-01	7.4226e-02	-1.5530e-01	4.7270e+02
428	5.4128e-02	8.7680e-02	5.4222e-02	6.2958e-03	1.6690e+03
429	3.5495e-01	1.7798e-01	2.8248e-01	-6.7794e-03	5.8776e+02
430	1.0281e+00	1.2947e-03	1.9112e-01	-2.0477e-02	1.2964e+03
431	1.5020e-01	5.9861e-02	7.5053e-02	2.6969e-03	1.8152e+03
432	3.9190e-01	6.6951e-02	4.5188e-02	2.6143e-02	1.6529e+03
433	1.7172e-01	2.4334e-01	1.6387e-01	-1.3775e-01	0.0000e+00
434	1.6478e-01	1.8006e-01	9.1381e-02	-7.7689e-02	7.0869e+02
435	5.1575e-01	1.2559e-01	1.0879e-01	-7.9818e-02	1.0046e+03
436	9.2384e-01	1.2253e-02	1.3274e-01	2.4636e-01	1.4632e+03
437	9.6314e-02	1.7435e-01	5.3862e-02	-8.8617e-02	7.7953e+02
438	3.2279e-01	2.2979e-01	3.2657e-01	-6.5751e-02	6.4496e+01
439	4.4609e-01	2.1330e-01	3.2405e-01	4.2539e-03	1.5682e+02
440	6.8564e-01	5.4748e-02	1.1567e-01	-9.6210e-02	1.3496e+03
441	3.0784e-01	1.0865e-01	7.9366e-02	6.2301e-03	1.3921e+03
442	7.6328e-01	6.8285e-02	1.5432e-01	-9.7195e-02	9.7704e+02
443	1.7500e-01	5.7346e-02	1.2935e-01	-3.0518e-02	1.8400e+03
444	5.0243e-01	3.9126e-02	2.5264e-01	-6.4595e-02	2.0697e+03
445	1.3697e+00	1.6129e-01	1.0831e-01	1.1299e-01	4.1090e+02
446	1.6758e-01	2.1563e-01	1.1582e-01	-7.7795e-02	3.6356e+02
447	6.3168e-02	3.7569e-02	5.8229e-02	2.5854e-02	1.8272e+03
448	2.7930e-02	-1.1413e-02	7.5141e-04	5.4463e-02	1.8391e+03
449	1.7129e-01	1.1011e-03	1.1361e-01	-8.1583e-02	1.9785e+03
450	3.8314e-02	2.1703e-01	-1.0961e-02	-4.3548e-02	2.9180e+02
451	2.1281e-02	2.0055e-01	1.5193e-02	-2.0895e-01	4.3044e+02
452	2.6262e-01	-8.0274e-03	2.4699e-02	5.5700e-02	1.7055e+03
453	1.8883e-01	4.8207e-02	1.7627e-01	-7.7606e-03	1.9188e+03
454	2.5136e-01	3.7879e-02	2.2085e-01	-1.4257e-01	1.8328e+03
455	5.7239e-02	1.6949e-01	7.6297e-02	-6.8105e-02	8.7952e+02
456	1.8818e-01	1.6695e-01	7.0126e-02	-6.6780e-02	7.9830e+02
457	1.6590e-01	3.2079e-02	9.4958e-02	-7.9303e-02	1.9833e+03
458	1.4294e-01	2.1456e-04	4.4513e-02	3.1770e-02	1.9023e+03
459	2.5155e-02	5.9781e-02	3.1732e-02	-1.9936e-03	1.9315e+03
460	2.7184e-02	1.2030e-01	7.6586e-02	-9.1181e-02	1.3443e+03
461	4.3996e-01	2.1588e-01	2.4830e-01	-2.8057e-02	0.0000e+00
462	6.7929e-02	2.4524e-01	6.0722e-02	-1.6641e-01	5.1129e+00
463	6.0163e-02	7.9805e-02	4.8716e-03	-8.7612e-02	1.7624e+03
464	1.2702e-01	9.9250e-02	1.0639e-01	-2.2917e-02	1.5616e+03
465	5.0653e-02	2.0213e-01	6.5241e-02	-3.4933e-02	5.4894e+02
466	4.1031e-02	1.6844e-01	4.8724e-02	-1.0530e-01	8.5931e+02
467	4.1500e-01	1.1527e-01	2.3449e-01	-8.3323e-02	1.2410e+03
468	1.5655e-02	2.1805e-02	-6.6853e-03	-7.6261e-02	2.2588e+03
469	3.7305e-01	1.9139e-01	3.2330e-01	-1.1578e-01	3.8209e+02
470	5.6765e-02	1.1795e-02	1.1916e-01	-4.1965e-03	1.9316e+03
471	3.2956e-01	1.9625e-02	2.6849e-01	-2.2979e-02	2.0011e+03
472	4.8049e-02	1.5829e-01	7.8250e-02	-1.0379e-01	9.9982e+02
473	3.5351e-01	2.2711e-01	3.5474e-01	-5.7860e-02	7.0027e+01
474	1.4509e-01	4.5096e-02	1.2466e-01	1.7817e-02	1.8495e+03
475	6.3669e-02	2.2403e-01	7.8189e-02	-6.9905e-02	3.7124e+02
476	7.8149e-01	6.2366e-02	1.7057e-01	-5.7995e-02	9.7779e+02
477	4.1111e-01	1.8900e-01	2.7855e-01	-7.1569e-02	4.1453e+02
478	3.2985e-01	2.0955e-01	2.6468e-01	-7.8400e-02	3.2526e+02
479	3.9181e-01	2.0419e-01	3.3043e-01	-6.4213e-02	2.4837e+02
480	3.5214e-01	8.1941e-02	5.8082e-02	6.4608e-02	1.6235e+03
481	5.8635e-01	1.9704e-01	2.3103e-01	1.8788e-02	7.7175e+01
482	5.3891e-01	9.3738e-02	2.2604e-01	9.6551e-02	1.3311e+03
483	1.8398e-01	1.1539e-02	7.4864e-02	2.3470e-02	1.9267e+03
484	2.2442e-01	2.4144e-01	2.2686e-01	-1.2480e-01	1.3940e+02
485	1.6017e-01	5.8866e-02	1.3324e-01	-9.4355e-02	1.8002e+03
486	4.0507e-01	7.6213e-02	1.4714e-01	-4.0440e-02	1.6371e+03
487	3.4497e-01	1.4412e-01	2.3862e-01	1.1280e-02	9.8574e+02
488	3.5532e-01	2.0111e-01	3.7724e-01	-7.2116e-02	3.9695e+02
489	2.6112e-01	6.8442e-02	1.8187e-01	2.0039e-02	1.6141e+03
490	1.0267e-01	9.9993e-02	9.8337e-02	-1.4214e-02	1.5695e+03
491	1.0455e-01	2.2496e-01	1.4993e-01	-2.1603e-01	2.7466e+02
492	7.9333e-02	2.4316e-01	8.3149e-02	-1.4995e-01	3.2178e+01
493	3.0783e-01	1.6622e-01	1.2433e-01	1.0746e-02	7.6729e+02
494	1.5059e-01	1.3076e-01	1.0336e-01	-8.8958e-02	1.1802e+03
495	2.1620e-01	2.3030e-01	2.1771e-01	-1.3279e-01	1.8167e+02
496	9.3080e-01	1.0755e-01	2.1499e-01	3.9721e-02	5.9514e+02
497	5.2123e-02	1.1756e-01	4.2688e-02	-4.5036e-02	1.3948e+03
498	5.7570e-02	2.3080e-01	6.7462e-02	-1.9673e-01	2.6583e+02
499	2.2983e-01	3.2197e-02	1.1495e-01	-5.4611e-02	1.9181e+03
500	3.8330e-01	1.6744e-02	6.4195e-02	9.9717e-02	2.0990e+03
501	1.8348e-01	7.9087e-02	1.1464e-01	-6.2845e-02	1.6026e+03