variables="k","x","y","vx","vy","pressure"
zone i=8064 j=1
0	5.0689e-01	6.0535e-02	1.9824e-01	-1.6334e-01	1.5219e+03
1	4.1823e-01	2.0533e-01	3.7748e-01	-8.7699e-02	2.6680e+01
2	6.2920e-02	1.4206e-01	6.3011e-02	-5.1618e-02	7.2474e+02
3	5.6077e-01	-1.5210e-03	2.4549e-01	6.8613e-02	1.5364e+03
4	4.6843e-02	1.9067e-01	5.0777e-03	-9.1780e-02	3.8415e+02
5	8.6559e-01	9.4347e-02	3.2421e-01	2.5598e-02	1.2555e+03
6	2.2078e-01	1.9090e-01	1.2444e-01	-1.1228e-01	2.4384e+02
7	1.6067e-01	1.3035e-01	1.4262e-01	-9.2217e-02	8.4681e+02
8	-4.3644e-03	2.3855e-02	3.5810e-02	1.2700e-02	1.7351e+03
9	7.3388e-01	1.9182e-01	3.5879e-01	3.5785e-02	7.1826e+01
10	1.9766e-01	1.9768e-01	1.4828e-01	-1.3517e-01	1.2994e+02
11	4.3162e-01	1.0369e-01	2.6636e-01	4.3016e-02	1.1688e+03
12	3.9151e-01	1.2477e-01	1.8535e-01	6.1132e-02	9.2708e+02
13	5.9815e-01	1.9098e-01	3.0677e-01	-1.5676e-02	1.7718e+02
14	9.5230e-01	4.7430e-02	1.5793e-01	4.2393e-02	1.7483e+03
15	4.3653e-01	1.1303e-01	2.0095e-01	2.4520e-03	1.0355e+03
16	3.8715e-01	1.4037e-01	1.7819e-01	2.1749e-02	8.0569e+02
17	1.0655e+00	1.0656e-01	1.3576e-01	1.9539e-01	1.1641e+03
18	1.3823e+00	2.9353e-01	-4.2372e-01	1.4587e-01	1.1409e+02
19	3.1713e-02	1.6640e-01	3.1983e-03	-1.6911e-01	3.9244e+02
20	4.6239e-01	8.1735e-02	1.6365e-01	-1.6423e-02	1.3031e+03
21	2.9332e-01	2.0239e-01	2.1664e-01	-1.2318e-01	7.3799e+01
22	2.8723e-01	3.3708e-02	1.9780e-01	-1.5771e-02	1.8248e+03
23	2.3526e-01	1.8528e-01	1.9243e-01	-1.6857e-01	3.1982e+02
24	1.0088e+00	6.6677e-02	1.3684e-01	6.4388e-02	1.5246e+03
25	-1.6029e-03	1.3309e-01	9.4393e-02	-8.6045e-02	9.0944e+02
26	1.6011e-01	1.1016e-02	8.6931e-02	1.8138e-02	1.6323e+03
27	1.8692e-01	6.6809e-02	1.1967e-01	-1.0017e-01	1.5200e+03
28	3.6640e-01	2.0841e-02	2.1685e-01	2.4660e-02	1.7666e+03
29	5.1106e-01	1.6788e-01	3.3250e-01	-5.8570e-02	3.4922e+02
30	-2.4726e-03	9.0254e-02	3.7253e-01	-9.3857e-03	1.3532e+03
31	2.2254e-01	7.8885e-02	1.4073e-01	-8.4770e-02	1.4256e+03
32	3.1171e-01	2.0383e-01	2.0802e-01	-1.3175e-01	0.0000e+00
33	5.7799e-01	1.9955e-01	3.4914e-01	-5.9543e-02	1.4927e+02
34	1.0877e+00	5.3739e-02	1.2823e-01	1.3538e-01	1.8183e+03
35	1.1841e+00	2.0127e-01	-8.6683e-02	3.2994e-01	5.8966e+02
36	3.1156e-01	9.6838e-02	1.7455e-01	-3.2417e-02	1.2726e+03
37	1.3527e+00	2.9007e-01	-4.0894e-01	2.3330e-01	0.0000e+00
38	1.0745e+00	1.0901e-01	6.2019e-02	1.3800e-01	1.3017e+03
39	1.0266e+00	1.2248e-01	9.8996e-02	1.5763e-01	9.8965e+02
40	5.1145e-01	1.6108e-01	2.8560e-01	-1.2258e-01	4.1701e+02
41	1.4295e-01	1.2467e-01	1.1698e-01	-7.7196e-02	8.4254e+02
42	3.7307e-01	3.9515e-02	3.0264e-01	4.6354e-04	1.6061e+03
43	1.1020e+00	1.0021e-01	1.9247e-02	1.7815e-01	1.4210e+03
44	4.8695e-01	1.3145e-01	3.3576e-01	-5.3356e-02	6.7583e+02
45	1.3605e+00	2.8805e-01	-4.3616e-01	1.9199e-01	9.0999e+01
46	4.1517e-01	2.0636e-01	3.3770e-01	-7.2353e-02	2.9172e+01
47	5.2398e-01	1.8324e-01	3.9870e-01	-8.7224e-02	2.4041e+02
48	9.5349e-02	1.9726e-01	1.1601e-01	-1.2838e-01	5.4858e+01
49	4.9812e-01	1.1901e-01	2.5936e-01	-1.7584e-01	7.3188e+02
50	1.2259e+00	2.0295e-01	-1.0379e-01	3.1156e-01	6.0703e+02
51	1.0682e-01	1.4823e-01	3.3157e-02	-1.0111e-01	5.8013e+02
52	2.0416e-01	5.0296e-02	9.5248e-02	-7.1551e-02	1.6504e+03
53	2.6034e-02	1.9789e-01	-4.9039e-02	-1.3707e-01	3.7023e+01
54	2.3590e-01	1.5324e-01	1.1144e-01	-1.2345e-01	7.0364e+02
55	2.9015e-01	1.3192e-01	1.3711e-01	-8.9839e-02	8.8743e+02
56	6.1950e-01	1.2989e-01	2.5084e-01	3.9364e-02	5.7906e+02
57	4.1987e-01	9.8134e-02	1.7460e-01	1.9421e-02	1.2173e+03
58	1.4236e+00	3.0613e-01	-4.5278e-01	1.2813e-01	0.0000e+00
59	5.0702e-01	4.0598e-02	2.1785e-01	-1.7408e-01	1.7217e+03
60	5.6298e-02	2.0087e-01	2.3502e-04	-1.1300e-01	9.7662e+00
61	1.2122e+00	2.3553e-01	-1.5280e-01	3.6922e-01	5.9712e+01
62	1.0955e+00	8.6839e-02	7.8259e-02	1.1193e-01	1.5374e+03
63	2.7976e-01	1.7798e-01	1.8078e-01	-1.1386e-01	3.9570e+02
64	4.0298e-01	-1.5976e-02	-6.0013e-03	1.5133e-02	1.6511e+03
65	-7.5961e-03	-8.2254e-04	-1.1022e-01	1.1045e-02	1.1402e+03
66	5.6749e-02	-1.2673e-02	1.0595e-01	1.6963e-01	1.3250e+03
67	1.2588e-01	1.6977e-01	5.0035e-02	-9.1672e-02	3.2273e+02
68	5.9785e-02	4.2119e-02	3.5447e-02	-5.3442e-02	1.5947e+03
69	1.1267e-01	7.4679e-02	8.3920e-02	-1.0834e-03	1.4013e+03
70	3.9328e-02	1.1866e-01	6.0739e-02	-8.6901e-02	9.7555e+02
71	6.3087e-01	-1.8865e-03	2.0410e-01	7.2319e-02	1.8307e+03
72	7.2452e-01	1.1871e-01	3.1344e-01	3.3831e-02	6.8735e+02
73	3.1019e-01	-1.3326e-03	3.3437e-01	1.9695e-01	1.8545e+03
74	1.9555e-01	7.8049e-02	1.3049e-01	-8.6638e-02	1.4435e+03
75	1.4016e+00	3.0316e-01	-4.8574e-01	9.1361e-02	0.0000e+00
76	7.3026e-01	1.3646e-01	3.7691e-01	2.1845e-02	6.5348e+02
77	4.3236e-01	1.7942e-01	4.0398e-01	-5.8561e-02	2.9569e+02
78	4.9200e-01	1.0833e-01	2.2322e-01	-1.1105e-01	9.4936e+02
79	1.6128e-01	1.2294e-01	8.2293e-02	-4.6068e-02	9.0123e+02
80	4.3708e-01	1.5187e-02	1.3401e-01	-5.1239e-02	1.7593e+03
81	6.0016e-01	5.9148e-02	3.9838e-01	3.7089e-02	1.2786e+03
82	1.6255e-01	1.8769e-01	3.5719e-02	-1.2073e-01	2.3118e+02
83	1.4187e+00	2.8274e-01	-4.0462e-01	8.7874e-02	3.6079e+02
84	1.2283e-01	1.9930e-01	1.2197e-01	-1.6129e-01	0.0000e+00
85	1.1930e+00	2.0657e-01	-1.0487e-01	3.0535e-01	5.1948e+02
86	7.8388e-02	9.1134e-02	5.9061e-02	-7.6035e-02	1.1814e+03
87	1.1251e-01	1.1859e-01	9.2721e-02	-1.9351e-02	9.4527e+02
88	1.5474e-01	1.9648e-01	5.7583e-02	-1.0938e-01	7.4635e+01
89	6.8293e-01	9.9560e-02	3.1695e-01	1.4214e-01	7.6323e+02
90	1.0376e+00	1.9469e-01	1.3845e-01	2.1337e-01	1.3041e+02
91	5.2195e-01	1.9448e-01	3.9506e-01	-4.1978e-02	2.9081e+02
92	2.3068e-01	1.0293e-01	1.7198e-01	-1.2370e-01	1.1540e+03
93	5.0044e-01	1.8723e-01	4.1547e-01	-6.5682e-02	1.7104e+02
94	1.2516e+00	2.0507e-01	-1.2159e-01	2.3628e-01	8.3865e+02
95	6.8120e-02	6.7001e-02	5.3215e-02	-2.1801e-02	1.4276e+03
96	1.0929e+00	2.0258e-02	2.6291e-02	6.4328e-02	1.9998e+03
97	3.7555e-01	2.0436e-01	3.5242e-01	-9.2971e-02	8.0098e+01
98	3.3420e-01	1.3698e-01	1.2630e-01	-1.3303e-02	8.4611e+02
99	1.0396e+00	1.1991e-01	5.5063e-02	1.0326e-01	1.1146e+03
100	4.7722e-01	3.7771e-02	8.7639e-02	-7.6834e-02	1.8011e+03
101	4.7872e-01	6.0076e-02	1.8525e-01	-4.1260e-02	1.5451e+03
102	1.2198e+00	2.0935e-01	-1.0076e-01	3.1159e-01	5.5339e+02
103	1.3591e+00	1.9152e-01	-2.5094e-01	1.4466e-01	1.2410e+03
104	4.0985e-02	1.7151e-01	-1.6303e-02	-4.7375e-02	3.0879e+02
105	6.4477e-01	1.0679e-01	2.8640e-01	1.9075e-01	7.1630e+02
106	2.5196e-01	1.9085e-01	1.9272e-01	-1.0574e-01	2.4063e+02
107	5.8876e-01	1.6777e-01	2.6635e-01	-3.8071e-02	3.1415e+02
108	4.3955e-01	7.7169e-02	1.4147e-01	-9.9112e-03	1.4149e+03
109	1.0916e+00	1.8452e-01	7.7305e-02	2.6954e-01	4.3179e+02
110	1.3441e+00	1.9942e-01	-2.0720e-01	1.3662e-01	1.1651e+03
111	1.2247e+00	2.2804e-01	-9.6455e-02	2.7408e-01	2.8427e+02
112	1.6852e-01	1.7389e-01	1.5893e-01	-1.0046e-01	3.6973e+02
113	1.6299e-01	2.0152e-01	9.0696e-02	-1.4217e-01	0.0000e+00
114	4.4987e-01	1.3008e-01	3.1358e-01	-8.5370e-03	8.0613e+02
115	2.8464e+00	6.1391e-02	-1.6005e-01	3.9598e-02	1.9225e+03
116	1.1228e+00	1.4412e-01	-7.5952e-03	1.7265e-01	1.0387e+03
117	1.3751e+00	2.0158e-01	-2.9961e-01	1.1319e-01	1.1848e+03
118	7.0415e-01	1.5960e-01	4.0386e-01	1.2775e-01	3.0997e+02
119	4.7676e-01	7.9782e-02	2.0219e-01	-1.2779e-01	1.3204e+03
120	1.0735e+00	1.5498e-01	4.1400e-02	2.4861e-01	6.5557e+02
121	4.6744e-01	1.2886e-01	3.3936e-01	-7.9286e-02	8.0466e+02
122	4.5092e-01	2.0603e-01	3.3245e-01	-1.3075e-01	0.0000e+00
123	4.8130e-01	1.1725e-01	3.1467e-01	-8.1986e-02	8.4613e+02
124	2.0619e-01	1.5979e-01	1.2784e-01	-1.2435e-01	5.8900e+02
125	6.6777e-01	2.5202e-02	1.8051e-01	5.6322e-04	1.3812e+03
126	3.7063e-01	1.5158e-01	1.7488e-01	2.6756e-02	7.0051e+02
127	4.6531e-01	1.5086e-02	7.3478e-02	-1.2971e-01	1.8502e+03
128	2.2035e-01	1.0028e-01	1.3616e-01	-5.1012e-02	1.1647e+03
129	-3.1809e-03	7.2701e-02	1.0794e-01	-3.5876e-02	1.5682e+03
130	9.8170e-01	1.6334e-01	1.7576e-01	2.1868e-01	4.2910e+02
131	5.4131e-01	1.9234e-01	3.1080e-01	-3.2276e-02	2.1770e+02
132	2.8115e-01	1.5489e-02	1.9926e-01	-7.2809e-03	1.7933e+03
133	3.7423e-01	-2.3202e-03	9.7617e-02	-1.9953e-01	2.0258e+03
134	3.0737e-02	1.1202e-01	-5.2571e-02	-6.6131e-02	1.0043e+03
135	6.5914e-03	1.7223e-01	-3.2357e-02	-1.7714e-01	3.4298e+02
136	1.6016e-01	1.6309e-01	9.7825e-02	-1.7217e-01	4.8764e+02
137	5.0854e-01	2.0100e-01	3.7109e-01	-7.1512e-02	1.4017e+02
138	4.3699e-01	9.5296e-02	2.3832e-01	6.8079e-02	1.2088e+03
139	4.9373e-01	9.8753e-02	2.0845e-01	-1.2483e-01	1.0235e+03
140	5.1051e-01	1.1298e-01	2.8976e-01	-1.4893e-01	8.1948e+02
141	3.4483e-01	7.6590e-03	2.5084e-01	-3.4749e-02	2.1701e+03
142	4.0253e-02	1.5849e-01	7.1540e-02	-5.8302e-02	4.9013e+02
143	1.9174e-01	4.8449e-02	1.6711e-01	-9.6234e-02	1.6664e+03
144	3.2342e-01	1.5090e-01	1.5629e-01	-1.0196e-01	6.7758e+02
145	4.0721e-01	9.7014e-02	1.5903e-01	5.4819e-02	1.2076e+03
146	1.0065e+00	1.9053e-01	1.8600e-01	2.1340e-01	7.5642e+01
147	9.1419e-02	1.4324e-01	-2.6028e-02	-2.2370e-02	7.0118e+02
148	1.6370e+00	1.9804e-01	-2.6020e-01	-6.0109e-02	6.6553e+02
149	9.0014e-01	6.8769e-02	2.6741e-01	6.5636e-02	1.7032e+03
150	7.0338e-01	7.3876e-02	2.3908e-01	7.9333e-02	1.0078e+03
151	5.3162e-01	1.8676e-01	3.4518e-01	-6.4087e-02	2.6523e+02
152	1.7517e-01	1.5805e-01	1.3535e-01	-9.9069e-02	5.6516e+02
153	7.8338e-01	4.7959e-02	1.8329e-01	1.8436e-02	1.6352e+03
154	7.6037e-01	1.3298e-01	3.8230e-01	2.5865e-02	7.2567e+02
155	6.1350e-02	2.6731e-02	7.8727e-02	1.3243e-02	1.4640e+03
156	4.3585e-01	3.5459e-02	1.1080e-01	-4.5256e-02	1.7468e+03
157	4.2226e-01	1.7032e-01	3.3230e-01	-9.3015e-02	4.0836e+02
158	1.4865e+00	2.1095e-01	-3.9951e-01	-4.8809e-02	8.0294e+02
159	3.1749e-01	3.7307e-02	2.5247e-01	-1.6961e-02	1.8100e+03
160	7.9507e-01	9.1116e-02	2.9511e-01	-5.3648e-02	1.2868e+03
161	1.3645e+00	1.6211e-01	-3.8515e-01	1.0535e-01	1.4837e+03
162	1.5078e-01	1.2830e-01	7.1171e-02	-9.5200e-02	8.3837e+02
163	5.3634e-01	1.9267e-01	3.4131e-01	-1.4369e-01	2.0083e+02
164	7.7475e-01	1.6187e-01	3.4279e-01	-1.7018e-04	4.1860e+02
165	5.1746e-01	2.0799e-01	4.0358e-01	-1.0952e-01	0.0000e+00
166	3.6226e-01	1.8594e-01	2.2057e-01	-4.2209e-02	2.9857e+02
167	5.1681e-01	8.2091e-02	2.6247e-01	-1.2785e-01	1.1477e+03
168	2.9054e-01	1.2009e-02	7.4431e-02	-4.9793e-02	1.9928e+03
169	1.6650e-01	1.1815e-01	8.9607e-02	-9.8630e-02	9.5751e+02
170	3.9017e-02	4.3865e-02	1.7722e-01	4.4348e-02	1.6114e+03
171	6.4601e-01	4.5200e-02	3.0534e-01	2.4078e-02	1.3636e+03
172	4.7161e-01	1.3539e-01	3.3482e-01	-8.7701e-02	6.8485e+02
173	1.4103e-01	1.9723e-01	6.5320e-02	-1.1401e-01	1.0712e+02
174	6.8759e-01	1.7538e-01	2.9316e-01	1.8295e-02	2.1808e+02
175	7.5011e-01	4.9800e-02	1.6167e-01	-4.4253e-02	1.3900e+03
176	1.3520e+00	8.7816e-02	-3.4646e-01	-1.1999e-02	2.1175e+03
177	1.7542e-02	1.5325e-01	1.0944e-01	-2.1706e-01	4.9197e+02
178	2.8424e-01	7.3883e-02	1.9207e-01	-5.5808e-02	1.4613e+03
179	8.2848e-01	1.8375e-01	2.2172e-01	5.9411e-02	9.3124e+01
180	3.7038e-01	1.3694e-01	1.7359e-01	-1.3609e-02	8.2707e+02
181	2.7328e-01	1.3521e-01	9.4951e-02	-3.0315e-02	8.0014e+02
182	7.8976e-02	1.2756e-01	5.6777e-02	-3.4671e-02	8.0109e+02
183	9.5334e-03	1.6908e-01	5.3924e-02	-1.5917e-01	3.7251e+02
184	8.9456e-01	1.4719e-01	1.9027e-01	9.3676e-02	6.0263e+02
185	5.3250e-01	8.4761e-02	1.9568e-01	-1.3681e-01	1.0880e+03
186	1.3486e+00	2.3754e-01	-3.2886e-01	1.9175e-01	7.3834e+02
187	4.5742e-01	1.9893e-01	4.1171e-01	-4.5298e-02	1.5359e+02
188	1.8828e-01	6.7347e-02	1.0058e-01	-6.2987e-02	1.5203e+03
189	1.0721e+00	1.3984e-01	5.5413e-02	2.2843e-01	7.8646e+02
190	7.0804e-01	4.7243e-02	3.6363e-01	9.1826e-02	1.2125e+03
191	6.6711e-01	1.4699e-02	1.1741e-01	-5.1390e-02	1.3482e+03
192	4.7668e-02	1.5154e-01	6.0438e-02	-5.7614e-02	6.1499e+02
193	7.1217e-02	6.1916e-02	3.7059e-02	2.6142e-02	1.3955e+03
194	1.2409e-01	1.8074e-01	1.0426e-01	-1.0303e-01	3.4704e+02
195	3.0237e-01	1.5459e-02	2.8820e-01	3.0735e-02	1.8049e+03
196	-4.3722e-03	3.9013e-02	2.1618e-01	-3.3038e-02	1.8619e+03
197	2.3717e-02	1.4365e-01	9.3043e-02	-1.1280e-01	7.3216e+02
198	6.8750e-02	9.0858e-02	2.9755e-02	-3.0858e-02	1.2046e+03
199	2.1751e-01	9.2922e-02	1.0073e-01	-1.2326e-01	1.2668e+03
200	1.1876e-02	6.0172e-02	-6.4209e-02	-3.9734e-02	1.5859e+03
201	4.4447e-02	4.8757e-02	-1.3066e-01	-6.4149e-02	1.7086e+03
202	1.6880e-01	5.4104e-02	6.0864e-02	-1.8742e-02	1.6062e+03
203	2.4737e-01	3.5319e-02	2.2278e-01	-3.6973e-02	1.8048e+03
204	1.2939e-01	5.5938e-02	8.4031e-02	4.2220e-02	1.4421e+03
205	4.2881e-01	1.2927e-01	2.9134e-01	-2.0295e-02	8.3746e+02
206	5.5319e-01	2.0644e-01	2.7029e-01	-5.7070e-02	7.5786e+01
207	2.6879e-01	3.0524e-02	2.4489e-01	2.4214e-03	1.8422e+03
208	5.2385e-02	1.7672e-01	-4.4422e-02	-3.5409e-02	3.3172e+02
209	8.4293e-02	1.5481e-01	1.8364e-02	-1.7529e-02	5.1249e+02
210	7.5420e-01	1.0627e-01	2.5222e-01	4.3448e-02	9.9616e+02
211	4.2435e-01	1.6900e-01	3.2414e-01	-4.1147e-02	4.2481e+02
212	7.8314e-02	1.9902e-01	1.7758e-02	-1.2144e-01	4.8699e+01
213	3.1370e-01	1.5521e-02	2.2149e-01	1.9532e-02	1.9861e+03
214	4.4570e-02	1.9952e-01	9.8294e-03	-1.3616e-01	1.7997e+02
215	1.2830e-01	1.4821e-01	7.6875e-02	-8.2366e-02	6.4487e+02
216	1.1429e+00	2.1556e-01	-4.1763e-02	2.8639e-01	0.0000e+00
217	1.3980e-01	8.8117e-02	7.6781e-02	-2.9834e-02	1.2331e+03
218	4.8105e-01	2.0080e-01	3.6992e-01	-7.8215e-02	1.8095e+02
219	6.9808e-01	5.0568e-02	1.0675e-01	1.9339e-02	1.3406e+03
220	2.6564e-01	7.4912e-02	1.6765e-01	-1.1276e-01	1.4585e+03
221	3.5520e-01	8.0974e-02	2.3107e-01	4.4349e-02	1.3620e+03
222	9.8046e-02	1.2451e-01	5.5542e-02	-5.6380e-02	8.7468e+02
223	3.0570e-01	8.5428e-02	1.2834e-01	3.6109e-02	1.3565e+03
224	4.4780e-01	3.5101e-03	2.2912e-01	8.9909e-03	1.7743e+03
225	6.4712e-01	1.9983e-01	3.7465e-01	1.8038e-02	5.2777e+01
226	4.6443e-02	2.0101e-01	-2.2122e-02	-1.0333e-01	0.0000e+00
227	1.3384e+00	2.7570e-01	-4.1718e-01	2.3028e-01	2.3749e+02
228	7.9655e-01	6.4323e-02	1.9465e-01	-7.7317e-02	1.4955e+03
229	4.6904e-01	5.8694e-02	1.3925e-01	-9.4072e-02	1.5980e+03
230	2.1460e-01	1.8574e-01	1.2980e-01	-1.4112e-01	3.1470e+02
231	8.1843e-02	1.8319e-01	2.3206e-02	-8.0846e-02	4.0154e+02
232	1.5754e-01	1.0235e-01	5.8128e-03	-3.7750e-02	1.0679e+03
233	8.3519e-01	1.1786e-01	2.7738e-01	-6.8990e-03	8.8556e+02
234	1.3856e+00	2.5699e-01	-3.0265e-01	7.5403e-02	5.6941e+02
235	3.8259e-01	1.1125e-01	2.0407e-01	3.6363e-02	1.1285e+03
236	2.3149e-01	1.5243e-01	1.3026e-01	-1.3654e-01	7.0496e+02
237	7.9383e-01	1.2639e-01	3.5329e-01	-5.2235e-04	7.8088e+02
238	1.0945e-01	2.8242e-02	3.2531e-02	-2.9489e-02	1.6331e+03
239	9.3308e-01	1.5051e-01	1.8054e-01	1.4357e-01	5.9076e+02
240	6.6976e-01	3.7901e-02	1.9154e-01	1.3335e-02	1.3360e+03
241	4.0460e-01	1.5852e-01	2.7664e-01	-3.4543e-02	5.3053e+02
242	1.1208e+00	1.3610e-01	3.0344e-03	1.8943e-01	1.0961e+03
243	1.0530e+00	1.0479e-01	4.2049e-02	1.1875e-01	1.2317e+03
244	2.6421e-01	1.7841e-01	1.7473e-01	-1.5251e-01	4.3144e+02
245	1.3056e-01	1.7229e-01	1.4161e-01	-1.4916e-01	3.0101e+02
246	4.9270e-01	1.4954e-01	3.5543e-01	-9.9580e-02	5.1122e+02
247	9.1265e-01	4.5816e-02	2.3573e-01	2.5598e-02	1.8836e+03
248	1.4460e+00	2.7975e-01	-4.5264e-01	-1.6215e-02	3.7664e+02
249	2.4914e-01	5.0790e-02	1.6148e-01	-5.3722e-02	1.7230e+03
250	1.5215e-01	4.6840e-02	5.2097e-02	-5.4092e-02	1.6256e+03
251	5.0488e-01	1.3323e-01	2.8367e-01	-1.0466e-01	6.8496e+02
252	1.4308e+00	2.9319e-01	-4.9571e-01	1.5209e-02	2.8620e+02
253	9.1184e-02	1.6905e-01	9.7563e-02	-7.2536e-02	3.9657e+02
254	2.7173e-01	6.9843e-02	1.8172e-01	-3.3033e-02	1.4921e+03
255	3.5909e-01	6.6294e-02	2.0137e-01	1.7173e-02	1.4653e+03
256	4.9272e-01	1.6918e-01	3.4735e-01	-5.3330e-02	4.0829e+02
257	1.3353e-01	5.4922e-04	5.4965e-02	3.9928e-02	1.7386e+03
258	3.0374e-01	2.0398e-01	2.4895e-01	-1.1133e-01	9.1643e+01
259	2.4205e-02	9.5646e-02	4.7593e-02	-1.1314e-01	1.2767e+03
260	3.5180e-01	2.0728e-01	3.1095e-01	-8.7149e-02	1.4278e+02
261	1.2203e-01	2.0712e-02	1.8785e-02	-1.3186e-02	1.6034e+03
262	5.2182e-01	1.4993e-01	3.5395e-01	-2.4130e-02	4.6962e+02
263	2.3171e-01	2.0112e-01	1.5910e-01	-1.5418e-01	7.3988e+01
264	1.1039e-01	1.0105e-01	1.0528e-01	-5.0499e-02	1.1119e+03
265	-4.3387e-05	1.5890e-01	4.3013e-02	-1.1483e-01	6.0830e+02
266	2.2865e-02	1.9530e-01	2.3905e-02	-1.0593e-01	-9.2944e+00
267	3.2005e-02	8.8887e-02	3.9951e-02	-5.6776e-02	1.2350e+03
268	2.5743e-01	6.8992e-02	1.2931e-01	-6.4812e-02	1.4746e+03
269	4.3710e-01	1.8944e-01	3.4315e-01	-6.1561e-02	3.0906e+02
270	1.3561e-02	1.4369e-01	-4.4702e-03	-4.8562e-02	6.6193e+02
271	6.9701e-02	1.2355e-01	3.8968e-02	7.0762e-03	9.0790e+02
272	5.1334e-01	1.5007e-01	3.6712e-01	-1.1743e-01	4.7556e+02
273	5.4860e-02	1.0020e-01	1.1853e-01	-5.3515e-02	1.1570e+03
274	6.5373e-01	2.7943e-02	1.5112e-01	5.7660e-02	1.2242e+03
275	9.0530e-02	1.3578e-01	9.8458e-02	-1.0191e-01	7.4797e+02
276	8.0485e-01	8.0178e-02	2.9508e-01	-1.0241e-01	1.3380e+03
277	7.5527e-01	9.6653e-02	2.1931e-01	6.0858e-02	1.0206e+03
278	1.6952e-01	8.5015e-02	9.1664e-02	-6.6952e-02	1.3308e+03
279	4.5553e-01	1.5197e-01	3.2880e-01	-2.7356e-02	5.2855e+02
280	9.4143e-01	1.5291e-02	9.8244e-02	-4.4750e-02	1.7401e+03
281	4.5259e-01	1.0907e-01	3.0333e-01	1.9704e-02	9.8255e+02
282	4.7863e-01	1.6964e-01	3.3514e-01	-6.7358e-02	2.8683e+02
283	1.4942e-01	1.7100e-01	1.0032e-01	-9.6631e-02	4.0621e+02
284	4.4122e-01	3.6315e-02	1.6070e-01	3.5221e-02	1.6962e+03
285	1.8231e-01	1.9795e-01	1.6134e-01	-1.4646e-01	1.0217e+02
286	2.1142e-01	2.0102e-01	1.3411e-01	-1.4923e-01	0.0000e+00
287	3.4769e-02	1.8931e-01	-1.0696e-01	-1.3314e-01	2.4001e+02
288	1.4248e+00	1.7635e-01	-3.0703e-01	3.7884e-02	1.3043e+03
289	8.5144e-02	6.9407e-02	9.8957e-03	-1.3383e-02	1.4088e+03
290	6.3347e-01	1.6240e-01	2.4131e-01	-1.6638e-02	3.3350e+02
291	1.4204e-01	9.9641e-02	8.9153e-02	-5.5586e-02	1.1457e+03
292	6.8854e-01	2.2068e-02	2.6679e-01	3.4728e-02	1.5446e+03
293	2.7133e-01	2.0456e-01	1.5742e-01	-1.1827e-01	0.0000e+00
294	6.9393e-01	6.6111e-02	3.1141e-01	-9.8374e-03	1.0780e+03
295	2.3786e-01	6.7072e-02	1.5451e-01	-2.0297e-02	1.4661e+03
296	5.2722e-01	5.4895e-02	3.3303e-01	-4.5564e-02	1.4635e+03
297	2.8858e-01	1.0504e-01	1.4053e-01	-7.1045e-02	1.1901e+03
298	5.6021e-01	1.9459e-01	3.4737e-01	-1.6924e-02	8.1931e+01
299	2.2257e-01	8.4505e-02	1.1679e-01	-3.1260e-02	1.3367e+03
300	1.6694e-01	6.5705e-02	1.5726e-01	-9.5391e-03	1.4822e+03
301	6.0334e-01	1.8767e-01	2.8097e-01	4.4408e-02	1.8274e+02
302	2.7755e-01	1.6951e-01	1.2484e-01	-6.7129e-02	4.7646e+02
303	1.2462e-01	1.0423e-01	7.9191e-02	-1.9452e-02	1.0599e+03
304	1.2125e+00	2.0234e-01	-1.5181e-01	2.8725e-01	6.7060e+02
305	2.9939e-01	1.8147e-01	1.9846e-01	-9.2571e-02	3.6809e+02
306	8.3619e-01	8.9634e-02	2.4969e-01	-2.8777e-02	1.2420e+03
307	2.1410e+00	1.7836e-01	-1.2435e-01	-8.8207e-02	8.5324e+02
308	7.4301e-01	1.1739e-01	2.9607e-01	3.5462e-02	8.2927e+02
309	2.1133e-01	1.9816e-01	1.7122e-01	-1.2329e-01	1.2777e+02
310	7.7896e-01	3.7750e-02	1.3913e-01	-4.2320e-02	1.8185e+03
311	2.5358e-01	2.2724e-02	1.0761e-01	-6.1078e-02	1.7537e+03
312	8.0268e-01	1.6708e-01	3.3148e-01	8.6859e-02	3.3578e+02
313	4.1489e-02	1.3626e-01	5.7624e-02	-1.8003e-02	7.3839e+02
314	1.3738e-01	1.9916e-01	9.0998e-02	-1.1598e-01	0.0000e+00
315	2.3701e-01	1.9126e-01	1.4046e-01	-1.2576e-01	2.2792e+02
316	3.9265e-01	1.5159e-01	2.1585e-01	-9.4207e-03	6.8027e+02
317	1.4763e-01	6.8173e-02	1.3360e-01	-7.8198e-02	1.4902e+03
318	9.9157e-01	1.2233e-01	1.7669e-01	6.3999e-02	9.8150e+02
319	5.3256e-01	1.6171e-01	2.5071e-01	-1.0302e-01	4.2521e+02
320	1.8297e-02	1.5351e-03	1.8836e-01	1.3512e-01	1.0110e+03
321	4.4499e-01	5.7072e-02	1.5728e-01	1.6019e-02	1.5906e+03
322	1.1033e-01	5.2375e-02	2.6302e-02	4.5645e-02	1.4978e+03
323	1.8325e-01	1.5557e-01	1.2928e-01	-9.0418e-02	6.1783e+02
324	6.4803e-01	-8.7148e-03	1.6072e-01	-1.3482e-01	1.2980e+03
325	7.1818e-02	1.6364e-01	9.6698e-02	-1.0702e-02	4.2509e+02
326	2.4070e-01	2.0276e-01	1.8472e-01	-1.5772e-01	7.1121e+01
327	1.6898e-01	1.0269e-01	1.5864e-01	-9.6440e-02	1.1352e+03
328	1.5706e-01	1.5324e-01	5.7461e-02	-1.2319e-01	6.5158e+02
329	1.9465e-02	7.5999e-02	-6.5183e-04	-3.5291e-02	1.3980e+03
330	3.5708e-01	1.2159e-01	1.6678e-01	-1.9042e-02	1.0327e+03
331	7.7836e-02	3.3056e-02	8.6149e-02	-7.1750e-02	1.7152e+03
332	2.7642e-01	1.3900e-02	1.2078e-01	-8.3694e-02	1.7158e+03
333	3.5610e-02	7.1933e-03	-1.0851e-02	6.8995e-03	1.7186e+03
334	1.5644e-02	1.0558e-01	5.0456e-02	-1.2078e-01	1.1262e+03
335	9.3769e-02	1.5532e-01	7.9055e-02	-1.1001e-01	4.9718e+02
336	1.9958e-01	1.3641e-01	1.7783e-01	-7.8958e-02	7.9812e+02
337	1.9474e-01	3.6765e-02	1.0041e-01	-9.8640e-02	1.7763e+03
338	1.1986e+00	2.0134e-01	-4.7123e-02	3.1443e-01	6.7306e+02
339	8.4022e-02	1.7320e-01	7.8255e-02	-3.2149e-02	3.3929e+02
340	2.2286e-01	1.5943e-01	1.7606e-01	-8.5509e-02	5.6415e+02
341	3.9704e-01	1.0807e-01	2.1780e-01	1.5178e-01	1.1080e+03
342	2.1908e+00	1.2678e-01	-3.8557e-02	-6.3262e-03	1.3462e+03
343	6.5918e-01	4.9503e-03	2.1849e-01	-1.2307e-02	1.2821e+03
344	8.9446e-01	1.3015e-01	2.2627e-01	9.9933e-02	8.3450e+02
345	5.7869e-01	1.4605e-01	2.4267e-01	-3.1835e-02	5.0017e+02
346	1.6555e+00	2.2555e-01	-2.9178e-01	-3.6274e-02	4.0231e+02
347	3.0624e-01	6.6396e-02	2.3612e-01	-1.5551e-01	1.5369e+03
348	4.4457e-01	1.6423e-01	3.3894e-01	-7.3443e-02	4.3351e+02
349	3.7159e-01	1.9255e-01	2.9862e-01	-7.4126e-02	2.5324e+02
350	2.8970e-01	3.6315e-04	1.1736e-01	1.6081e-01	2.2505e+03
351	2.0293e-01	1.0415e-01	8.7602e-02	-8.9213e-02	1.1204e+03
352	1.9881e+00	2.4120e-01	-1.4440e-01	-9.2434e-02	1.1659e+02
353	4.0073e-01	7.8854e-02	2.7834e-01	1.1234e-01	1.3387e+03
354	4.9538e-01	2.0635e-01	4.0101e-01	-7.1572e-02	6.7524e+01
355	4.7956e-01	1.0843e-01	2.8118e-01	-5.9343e-02	9.4962e+02
356	5.3888e-01	7.6863e-04	1.8259e-01	5.9710e-02	1.5851e+03
357	1.3193e-01	1.5611e-01	8.2340e-02	-1.6154e-01	5.2726e+02
358	5.7089e-01	-1.6337e-03	2.6939e-01	-1.7016e-01	1.8600e+03
359	7.6155e-02	4.5510e-02	4.6491e-02	1.2252e-02	1.5657e+03
360	3.1462e-01	4.6414e-02	2.3033e-01	-1.5436e-02	1.7420e+03
361	2.4698e-01	1.8367e-01	1.5481e-01	-1.1017e-01	3.5425e+02
362	9.4846e-02	1.0871e-01	4.1278e-02	-4.4925e-02	1.0213e+03
363	5.1414e-01	7.2888e-02	2.1017e-01	-1.3236e-01	1.2074e+03
364	1.9382e-01	1.2368e-01	8.5672e-02	-1.0477e-01	9.1579e+02
365	8.8398e-01	1.3894e-01	2.5046e-01	5.1436e-02	7.2149e+02
366	8.4277e-01	7.9655e-02	2.9917e-01	5.1433e-03	1.4038e+03
367	5.3799e-01	1.3313e-02	2.5654e-01	-1.4726e-01	1.8596e+03
368	3.4618e-01	1.5181e-01	2.0463e-01	-5.2618e-02	6.9738e+02
369	1.4268e-01	5.5272e-02	2.4151e-02	-5.5725e-02	1.6169e+03
370	8.9404e-01	8.0906e-02	2.8752e-01	-2.0217e-02	1.5373e+03
371	1.1873e-01	1.4579e-01	5.0733e-02	-5.3545e-02	5.8600e+02
372	8.6995e-01	1.8587e-01	2.2968e-01	9.3188e-02	5.6686e+01
373	1.5914e-02	1.5799e-01	1.3832e-02	-7.4774e-02	4.0188e+02
374	1.1998e-01	1.6168e-03	4.2212e-02	3.2143e-02	1.7549e+03
375	6.5110e-01	1.0118e-01	3.2646e-01	1.8829e-01	7.7296e+02
376	1.0270e+00	1.3565e-01	1.0664e-01	1.9579e-01	7.7527e+02
377	5.1214e-02	1.1141e-01	-8.5599e-03	-9.4181e-02	1.0161e+03
378	3.9782e-01	1.3258e-01	2.5302e-01	5.7235e-02	7.8570e+02
379	6.1205e-01	3.7852e-02	3.7013e-01	6.4016e-02	1.2930e+03
380	2.5019e-01	8.6825e-02	1.7471e-01	-3.1441e-02	1.2882e+03
381	1.2968e+00	2.6400e-01	-3.3993e-01	3.5865e-01	9.6598e+01
382	1.2769e+00	2.2772e-01	-2.4100e-01	3.2581e-01	6.0835e+02
383	8.6203e-01	1.5780e-01	2.2081e-01	2.3616e-02	3.7707e+02
384	5.6441e-01	2.0699e-01	3.5693e-01	-3.7180e-02	6.5590e+01
385	1.3791e-01	2.4662e-02	2.1365e-02	5.1848e-02	1.6341e+03
386	-3.5476e-03	6.4536e-03	2.1792e-02	-7.9096e-02	1.6489e+03
387	4.6149e-01	1.8724e-01	4.0838e-01	-8.3028e-02	2.1788e+02
388	1.8936e-01	1.6339e-01	1.3378e-01	-1.4109e-01	5.5200e+02
389	4.9293e-01	1.9850e-01	3.8438e-01	-1.0878e-01	9.2178e+01
390	4.3636e-02	3.5588e-02	-1.7317e-02	4.1890e-02	1.5498e+03
391	4.7904e-01	1.5681e-01	3.4342e-01	-6.4092e-02	4.6171e+02
392	4.7557e-02	2.3422e-03	4.9115e-03	-1.0309e-01	1.5536e+03
393	4.5286e-01	5.7480e-02	1.9603e-01	-4.6860e-02	1.6043e+03
394	3.3623e-01	2.0467e-01	2.7523e-01	-1.2485e-01	1.0885e+02
395	9.2863e-01	1.2673e-01	2.5229e-01	1.4938e-01	8.8322e+02
396	6.0343e-02	1.9287e-01	-2.2799e-02	-3.4137e-02	1.6458e+02
397	1.7603e-02	7.1207e-02	-4.8164e-03	-5.8854e-02	1.4428e+03
398	2.4266e-01	2.1446e-02	1.4523e-01	-6.4801e-02	1.7698e+03
399	-1.6979e-03	5.8157e-02	1.0532e-01	-1.1991e-01	1.5884e+03
400	2.2397e-02	3.6529e-02	3.8240e-02	-7.3830e-02	1.7031e+03
401	7.3250e-01	2.1348e-02	1.1697e-01	-3.1164e-02	1.5241e+03
402	1.0013e-01	2.0193e-02	1.5265e-02	-1.5379e-02	1.6194e+03
403	8.4044e-02	7.8061e-02	7.1999e-02	-4.1061e-02	1.3777e+03
404	2.6404e-01	5.8767e-02	1.3507e-01	1.5435e-03	1.5199e+03
405	5.0539e-01	9.9017e-02	2.4659e-01	-1.6215e-01	8.9867e+02
406	8.4195e-02	4.6268e-02	5.4546e-03	-3.4921e-02	1.4792e+03
407	5.8679e-01	-1.1723e-03	1.8568e-01	4.2432e-02	1.7638e+03
408	3.3301e-01	1.1736e-01	1.4456e-01	-2.9830e-02	1.0974e+03
409	5.6446e-01	2.0530e-02	3.1553e-01	7.0855e-02	1.5870e+03
410	7.4508e-01	1.3024e-01	3.6272e-01	7.0287e-03	7.2272e+02
411	2.8169e-01	8.4157e-02	1.8663e-01	-8.7609e-04	1.2924e+03
412	7.4735e-02	1.7585e-01	4.7825e-02	-1.2006e-02	3.8607e+02
413	2.4952e-02	-1.2534e-03	6.7637e-02	1.2425e-01	1.5620e+03
414	4.4160e-01	1.2348e-01	2.8541e-01	1.9506e-03	8.3971e+02
415	4.2017e-01	1.1081e-01	1.6505e-01	-1.9827e-02	1.0602e+03
416	1.7813e-01	1.8860e-01	1.2492e-01	-1.4453e-01	2.3149e+02
417	3.4447e-01	2.1151e-02	2.5656e-01	-8.5670e-02	1.8557e+03
418	4.0208e-01	2.0706e-01	3.7796e-01	-1.1534e-01	1.6770e+02
419	1.3696e-01	1.3338e-01	6.4990e-02	-6.5755e-02	8.3718e+02
420	1.1829e-01	1.5900e-01	9.5644e-02	-7.7397e-02	5.1911e+02
421	4.1786e-02	2.0024e-01	-5.3963e-03	-1.1970e-01	0.0000e+00
422	1.0103e+00	1.5066e-01	1.2864e-01	1.3269e-01	6.0026e+02
423	4.0242e-01	1.2316e-01	2.3809e-01	5.3972e-02	9.3130e+02
424	2.3673e-01	9.2096e-02	1.5453e-01	-8.0673e-02	1.2611e+03
425	3.9246e-01	-5.5284e-04	1.3951e-01	7.7637e-03	1.8952e+03
426	3.3479e-01	7.7322e-02	1.3423e-01	-4.8618e-02	1.4335e+03
427	1.3471e-01	1.5893e-01	7.5027e-02	-1.2294e-01	4.8377e+02
428	6.2009e-02	7.3124e-02	1.3448e-03	-4.3643e-02	1.4283e+03
429	4.5162e-01	1.7357e-01	4.1436e-01	3.9324e-05	3.3500e+02
430	1.0527e+00	-8.0196e-05	2.1308e-01	1.5451e-01	2.2498e+03
431	1.8156e-01	5.0351e-02	9.0501e-02	-6.0324e-02	1.5626e+03
432	4.2965e-01	8.4141e-02	2.0907e-01	1.2731e-01	1.3121e+03
433	2.1577e-01	2.0069e-01	1.5122e-01	-1.2985e-01	8.8602e+01
434	1.8854e-01	1.4880e-01	8.8299e-02	-9.3801e-02	6.8849e+02
435	5.7330e-01	1.0473e-01	2.2969e-01	-4.9859e-02	9.0344e+02
436	9.6683e-01	6.1273e-02	1.3483e-01	7.5371e-02	1.5925e+03
437	1.0620e-01	1.4819e-01	-2.7870e-03	-8.0279e-02	5.6648e+02
438	4.2214e-01	2.0639e-01	3.5649e-01	-8.1818e-02	2.2818e+01
439	5.5425e-01	2.0649e-01	4.0503e-01	-2.5299e-02	6.4253e+01
440	7.3820e-01	4.2911e-02	1.9667e-01	1.4985e-02	1.4489e+03
441	3.5211e-01	1.1346e-01	2.1053e-01	-6.5744e-04	1.0630e+03
442	8.1730e-01	4.9549e-02	2.6332e-01	-2.8268e-02	1.7548e+03
443	2.2147e-01	3.9117e-02	1.3397e-01	-1.0322e-01	1.7586e+03
444	5.8705e-01	3.0497e-02	3.3551e-01	8.4690e-02	1.5765e+03
445	1.3455e+00	2.0561e-01	-2.5801e-01	1.4710e-01	1.0764e+03
446	1.9270e-01	1.8407e-01	9.8097e-02	-8.8814e-02	3.4135e+02
447	7.4657e-02	2.1688e-02	6.5568e-02	-1.0640e-01	1.6479e+03
448	4.7183e-02	-1.2338e-02	2.6935e-02	5.2199e-02	1.4126e+03
449	2.0755e-01	4.8192e-04	1.4658e-01	1.2219e-01	1.5710e+03
450	1.9118e-02	1.8421e-01	-7.3549e-02	-1.7914e-01	3.5625e+02
451	2.7872e-02	1.4769e-01	5.0698e-02	-1.4492e-01	6.1758e+02
452	2.4590e-01	-8.5713e-03	-8.8549e-02	5.5460e-02	1.4114e+03
453	2.3460e-01	4.4989e-02	1.6676e-01	-6.5539e-04	1.6390e+03
454	3.1754e-01	2.3799e-02	2.2319e-01	-4.1456e-04	1.8739e+03
455	7.9950e-02	1.4937e-01	8.2866e-02	-2.8377e-02	6.5092e+02
456	2.1610e-01	1.3924e-01	9.5647e-02	-1.1030e-01	7.7215e+02
457	1.8563e-01	9.1128e-03	1.3443e-01	-2.0781e-02	1.8263e+03
458	1.5633e-01	1.4026e-04	-8.5917e-03	2.3744e-02	1.7338e+03
459	2.6567e-02	4.8542e-02	-1.8258e-02	-3.3235e-02	1.5632e+03
460	4.5212e-02	1.1004e-01	2.4115e-02	3.8078e-02	1.0570e+03
461	5.3629e-01	2.0372e-01	4.1562e-01	-3.9480e-02	4.1412e+01
462	8.1453e-02	1.9884e-01	3.1658e-02	-1.2703e-01	1.4057e+01
463	6.4196e-02	5.5029e-02	-2.1809e-02	-1.2102e-01	1.5828e+03
464	1.5022e-01	8.6251e-02	1.2175e-01	-5.9502e-02	1.2693e+03
465	6.7338e-02	1.7741e-01	3.6279e-02	-8.4424e-02	3.2409e+02
466	5.9305e-02	1.4888e-01	7.2340e-02	-2.8025e-02	6.7631e+02
467	4.8057e-01	8.7302e-02	2.0271e-01	-1.2379e-01	1.1551e+03
468	2.0186e-02	1.6634e-02	-2.9294e-02	8.0374e-02	1.4888e+03
469	4.6782e-01	1.6995e-01	3.3749e-01	-6.2433e-02	3.3247e+02
470	9.0527e-02	6.7230e-03	1.8164e-01	-1.0325e-01	1.5512e+03
471	4.0014e-01	9.0229e-03	2.3784e-01	-2.1454e-02	1.6382e+03
472	6.7532e-02	1.4591e-01	4.1960e-02	4.0840e-02	6.5823e+02
473	4.6111e-01	2.0654e-01	3.5731e-01	-5.3373e-02	5.4267e+01
474	1.7648e-01	4.3397e-02	7.0160e-02	-5.4113e-02	1.6789e+03
475	8.4661e-02	1.8836e-01	4.7602e-02	-1.0284e-01	1.8695e+02
476	8.4571e-01	4.7119e-02	2.3926e-01	-3.6555e-02	1.6785e+03
477	4.9497e-01	1.6733e-01	3.4760e-01	-8.6689e-02	4.3378e+02
478	4.1977e-01	1.8363e-01	3.6391e-01	-7.4997e-02	2.6228e+02
479	5.0523e-01	1.8746e-01	4.4290e-01	-7.3413e-02	2.2600e+02
480	4.0066e-01	1.1735e-01	1.6669e-01	9.1071e-02	1.0058e+03
481	6.8158e-01	1.9413e-01	4.1954e-01	8.2047e-03	8.7777e+01
482	6.0188e-01	1.1441e-01	2.6093e-01	7.3337e-02	7.1417e+02
483	2.1102e-01	2.2307e-02	1.1688e-01	8.9209e-03	1.6984e+03
484	2.9047e-01	1.9960e-01	2.1499e-01	-1.2094e-01	9.9621e+01
485	2.0208e-01	3.4156e-02	9.1923e-02	-1.0080e-01	1.7429e+03
486	4.4735e-01	7.1478e-02	1.4827e-01	2.1563e-02	1.4515e+03
487	4.1135e-01	1.4155e-01	2.7528e-01	-1.2446e-02	7.4043e+02
488	4.7129e-01	1.8723e-01	4.3524e-01	-2.5995e-02	2.2007e+02
489	3.2076e-01	6.9135e-02	2.1837e-01	4.7616e-02	1.5045e+03
490	1.1751e-01	9.5655e-02	1.9765e-02	5.6754e-04	1.1188e+03
491	1.4380e-01	1.6642e-01	1.5283e-01	-1.7008e-01	4.5200e+02
492	9.5707e-02	1.9815e-01	8.7565e-02	-1.2081e-01	5.8118e+01
493	3.5488e-01	1.6014e-01	1.9902e-01	-1.7383e-02	5.7272e+02
494	1.8570e-01	1.0105e-01	1.5129e-01	-1.1065e-01	1.1105e+03
495	2.7643e-01	1.9569e-01	2.1123e-01	-8.7296e-02	1.9219e+02
496	9.8101e-01	1.3034e-01	1.5276e-01	1.5999e-01	8.2909e+02
497	6.4975e-02	1.0572e-01	3.4701e-02	-5.0400e-02	1.1079e+03
498	6.5807e-02	1.8748e-01	1.5907e-02	-8.7665e-02	2.7013e+02
499	2.7641e-01	2.9351e-02	2.4821e-01	2.0819e-02	1.8428e+03
500	4.3595e-01	3.1363e-02	1.8146e-01	6.5488e-02	1.8280e+03
501	2.2398e-01	6.4688e-02	1.2449e-01	-5.6324e-02	1.5302e+03