variables="k","x","y","vx","vy","pressure"
zone i=8064 j=1
0	5.1900e-01	4.9753e-02	1.7378e-01	-6.3009e-02	1.8817e+03
1	4.4886e-01	1.9917e-01	3.8304e-01	-6.9280e-02	5.9380e+01
2	6.7524e-02	1.3746e-01	6.7660e-02	-5.4636e-02	5.6655e+02
3	5.7962e-01	-1.5957e-03	1.9847e-01	6.9143e-02	1.9205e+03
4	4.6758e-02	1.8226e-01	-1.8513e-02	-8.2697e-02	1.7549e+02
5	8.9012e-01	9.7062e-02	2.8260e-01	2.6854e-02	1.1382e+03
6	2.3205e-01	1.8233e-01	1.5192e-01	-1.0885e-01	1.7312e+02
7	1.7372e-01	1.2276e-01	1.6456e-01	-1.0550e-01	7.8682e+02
8	-4.4238e-03	2.9884e-02	3.5604e-02	3.0093e-02	1.2681e+03
9	7.6465e-01	1.9608e-01	3.8657e-01	7.7864e-02	1.3360e+02
10	2.0878e-01	1.8858e-01	1.2805e-01	-9.8459e-02	7.6139e+01
11	4.5027e-01	1.0640e-01	1.9569e-01	-2.4219e-03	1.2333e+03
12	4.0562e-01	1.2779e-01	1.5576e-01	4.3820e-02	9.1049e+02
13	6.2359e-01	1.8887e-01	3.0061e-01	-4.2140e-02	2.7583e+02
14	9.6210e-01	4.9419e-02	9.0555e-02	4.1798e-02	1.4277e+03
15	4.5607e-01	1.1308e-01	2.3257e-01	5.1423e-03	1.0976e+03
16	3.9991e-01	1.4319e-01	1.4133e-01	8.2250e-03	8.4125e+02
17	1.0705e+00	1.2368e-01	-8.5523e-03	2.5471e-01	1.0484e+03
18	1.3433e+00	3.0354e-01	-5.3723e-01	1.0147e-01	1.4889e+02
19	3.2245e-02	1.5335e-01	1.5157e-02	-1.5346e-01	3.7302e+02
20	4.7716e-01	8.2608e-02	1.7529e-01	1.2100e-02	1.5027e+03
21	3.0966e-01	1.9365e-01	1.9398e-01	-1.0077e-01	7.0850e+01
22	3.0226e-01	3.3384e-02	2.4563e-01	-1.3622e-02	1.5847e+03
23	2.4980e-01	1.7226e-01	1.6670e-01	-1.5973e-01	2.6172e+02
24	1.0160e+00	7.0133e-02	5.3953e-02	9.5119e-02	1.3987e+03
25	-1.6125e-03	1.2646e-01	9.4440e-02	-9.1206e-02	5.6406e+02
26	1.6785e-01	1.4379e-02	1.1649e-01	4.1834e-02	1.5198e+03
27	1.9570e-01	6.0078e-02	1.1408e-01	-7.6371e-02	1.3971e+03
28	3.8525e-01	2.5038e-02	2.6474e-01	3.7590e-02	1.8218e+03
29	5.3745e-01	1.6275e-01	3.2783e-01	-6.9811e-02	4.7530e+02
30	-2.4955e-03	8.5732e-02	3.7201e-01	-1.1427e-01	9.2193e+02
31	2.3357e-01	7.3377e-02	1.1628e-01	-6.3841e-02	1.3070e+03
32	3.2796e-01	1.9286e-01	2.0114e-01	-1.1806e-01	9.0649e+01
33	6.0653e-01	1.9534e-01	3.6899e-01	-5.8042e-02	2.3339e+02
34	1.0896e+00	6.3742e-02	-4.6948e-02	1.1551e-01	1.7328e+03
35	1.1728e+00	2.2839e-01	-1.8536e-01	3.4141e-01	4.1426e+02
36	3.2485e-01	9.2832e-02	1.8528e-01	-6.1537e-02	1.2225e+03
37	1.3176e+00	3.0409e-01	-4.6170e-01	1.1199e-01	0.0000e+00
38	1.0757e+00	1.1725e-01	-2.2901e-02	1.2520e-01	1.1972e+03
39	1.0314e+00	1.3791e-01	1.3852e-02	2.3861e-01	8.3158e+02
40	5.3442e-01	1.5068e-01	2.9848e-01	-1.4138e-01	6.4045e+02
41	1.5288e-01	1.1686e-01	1.1750e-01	-1.0367e-01	8.1079e+02
42	3.9250e-01	3.8054e-02	2.1891e-01	-7.4301e-02	1.7933e+03
43	1.1012e+00	1.1628e-01	-6.7352e-02	1.7785e-01	1.3438e+03
44	5.1265e-01	1.2698e-01	3.0444e-01	-6.9849e-02	9.7083e+02
45	1.3231e+00	3.0283e-01	-4.9244e-01	1.7087e-01	2.5412e+01
46	4.4260e-01	1.9996e-01	3.4079e-01	-9.2782e-02	4.8611e+01
47	5.5579e-01	1.7642e-01	3.8714e-01	-7.8652e-02	3.3145e+02
48	1.0463e-01	1.8950e-01	1.0469e-01	-7.2426e-02	8.4825e+01
49	5.1952e-01	1.0733e-01	2.5341e-01	-1.3352e-01	1.1528e+03
50	1.2127e+00	2.2671e-01	-2.2418e-01	2.6336e-01	5.7222e+02
51	1.0824e-01	1.4134e-01	3.1845e-02	-8.7692e-02	5.1083e+02
52	2.1172e-01	4.4866e-02	9.5309e-02	-5.6934e-02	1.4949e+03
53	2.0465e-02	1.8870e-01	-8.0914e-02	-8.3337e-02	9.4926e+01
54	2.4578e-01	1.4409e-01	1.2114e-01	-9.2331e-02	5.4394e+02
55	3.0095e-01	1.2573e-01	1.3867e-01	-7.3024e-02	8.1341e+02
56	6.4172e-01	1.3324e-01	2.7614e-01	3.4618e-02	8.4021e+02
57	4.3524e-01	1.0133e-01	2.0490e-01	3.6462e-02	1.3454e+03
58	1.3871e+00	3.1026e-01	-4.5155e-01	-3.0394e-02	0.0000e+00
59	5.2312e-01	2.9502e-02	1.2711e-01	-5.6519e-02	1.9922e+03
60	5.7443e-02	1.9051e-01	3.3328e-02	-1.0457e-01	9.1826e+00
61	1.1946e+00	2.6683e-01	-3.0539e-01	4.1991e-01	1.7098e+02
62	1.1005e+00	9.6985e-02	3.9214e-02	1.2097e-01	1.4180e+03
63	2.9328e-01	1.7074e-01	1.6315e-01	-6.9482e-02	3.6440e+02
64	4.1555e-01	-1.6201e-02	3.0806e-01	1.5175e-02	2.4123e+03
65	-7.7266e-03	-8.5673e-04	-1.1242e-01	1.0398e-02	1.1413e+03
66	6.1523e-02	-1.2916e-02	1.1396e-02	1.7059e-01	1.3806e+03
67	1.3046e-01	1.6193e-01	6.6001e-02	-1.1090e-01	3.2067e+02
68	6.0000e-02	3.8038e-02	2.3127e-02	-4.5133e-02	1.1443e+03
69	1.2002e-01	7.4183e-02	1.0003e-01	-3.1591e-02	1.1465e+03
70	4.4426e-02	1.1193e-01	6.7359e-02	-8.3300e-02	6.2749e+02
71	6.4385e-01	-1.9627e-03	1.4703e-01	7.1853e-02	1.8020e+03
72	7.4970e-01	1.2343e-01	3.1177e-01	5.9073e-02	9.9807e+02
73	3.2537e-01	-1.4023e-03	1.2729e-01	1.9596e-01	1.5420e+03
74	2.0528e-01	7.2007e-02	1.1864e-01	-5.0290e-02	1.2654e+03
75	1.3595e+00	3.0709e-01	-5.4983e-01	5.9520e-03	7.6982e+00
76	7.6006e-01	1.3860e-01	3.5903e-01	3.0931e-02	8.3665e+02
77	4.6333e-01	1.7347e-01	3.6403e-01	-9.3858e-02	4.8567e+02
78	5.0801e-01	9.8634e-02	2.0020e-01	-1.2541e-01	1.2984e+03
79	1.6902e-01	1.1924e-01	1.0401e-01	-5.3437e-02	8.0681e+02
80	4.5109e-01	1.3665e-02	2.1209e-01	-5.5176e-02	2.1002e+03
81	6.3199e-01	6.3856e-02	4.0028e-01	8.1383e-02	1.5211e+03
82	1.6661e-01	1.7815e-01	8.3744e-02	-1.0662e-01	2.0412e+02
83	1.3848e+00	2.8400e-01	-4.2227e-01	-4.9889e-02	1.8143e+02
84	1.3200e-01	1.8787e-01	1.0083e-01	-1.3442e-01	5.4841e+01
85	1.1803e+00	2.3472e-01	-2.0574e-01	3.7247e-01	4.3068e+02
86	8.1988e-02	8.6356e-02	7.4913e-02	-5.4803e-02	8.9308e+02
87	1.2020e-01	1.1633e-01	1.0278e-01	-4.1907e-02	7.1586e+02
88	1.5872e-01	1.8830e-01	4.4385e-02	-1.0491e-01	-5.2916e+00
89	7.1041e-01	1.1036e-01	3.4780e-01	1.2053e-01	1.0514e+03
90	1.0438e+00	2.1682e-01	1.2549e-02	3.4768e-01	1.1350e+02
91	5.5251e-01	1.8923e-01	3.7180e-01	-9.5081e-02	2.4036e+02
92	2.4514e-01	9.3387e-02	1.8654e-01	-9.3838e-02	1.1167e+03
93	5.3214e-01	1.7932e-01	3.7434e-01	-1.3199e-01	3.2290e+02
94	1.2371e+00	2.2530e-01	-2.3284e-01	2.3152e-01	6.3504e+02
95	7.2556e-02	6.4262e-02	3.1591e-02	-9.3692e-03	1.0681e+03
96	1.0888e+00	2.9114e-02	-6.0586e-02	1.4424e-01	1.8537e+03
97	4.0329e-01	1.9885e-01	3.3345e-01	-5.6256e-02	2.6210e+01
98	3.4523e-01	1.3517e-01	1.3408e-01	-4.2064e-02	7.6137e+02
99	1.0407e+00	1.3203e-01	-1.1836e-02	1.7676e-01	9.4114e+02
100	4.8309e-01	3.3923e-02	5.5339e-02	-6.1971e-02	2.0861e+03
101	4.9031e-01	5.8462e-02	1.3637e-01	-2.5775e-02	1.7042e+03
102	1.2063e+00	2.3292e-01	-2.4545e-01	2.8439e-01	4.2884e+02
103	1.3347e+00	2.0163e-01	-3.4715e-01	1.2940e-01	9.7113e+02
104	3.6971e-02	1.6665e-01	-6.4739e-02	-6.3070e-02	3.4133e+02
105	6.6752e-01	1.1866e-01	2.9355e-01	1.2506e-01	8.8374e+02
106	2.6610e-01	1.8298e-01	1.5980e-01	-9.0384e-02	1.9248e+02
107	6.0999e-01	1.6308e-01	2.6457e-01	-8.2700e-02	5.0200e+02
108	4.5107e-01	8.0313e-02	1.3901e-01	3.8061e-02	1.4829e+03
109	1.0927e+00	2.0801e-01	-5.2301e-02	3.3477e-01	3.9629e+02
110	1.3256e+00	2.0962e-01	-2.4514e-01	1.0885e-01	8.6531e+02
111	1.2120e+00	2.5014e-01	-2.1690e-01	2.6856e-01	3.2165e+02
112	1.8098e-01	1.6542e-01	1.5516e-01	-1.0123e-01	3.1447e+02
113	1.6993e-01	1.8970e-01	8.3538e-02	-1.3642e-01	7.1647e+01
114	4.7439e-01	1.2670e-01	3.1489e-01	-5.3564e-02	9.6393e+02
115	2.8317e+00	6.3294e-02	-1.9309e-01	-1.1056e-02	1.7214e+03
116	1.1196e+00	1.6269e-01	-6.3796e-02	2.3501e-01	9.7335e+02
117	1.3520e+00	2.0709e-01	-2.8956e-01	4.9564e-02	9.4115e+02
118	7.3600e-01	1.6888e-01	4.0308e-01	1.0849e-01	4.0040e+02
119	4.9312e-01	7.3840e-02	2.3185e-01	-2.8848e-02	1.5560e+03
120	1.0744e+00	1.7636e-01	-2.5852e-02	2.9702e-01	6.3487e+02
121	4.9299e-01	1.2221e-01	3.3217e-01	-8.6837e-02	9.7770e+02
122	4.7702e-01	1.9616e-01	3.2373e-01	-1.0865e-01	2.4240e+02
123	5.0637e-01	1.1163e-01	2.8984e-01	-5.5417e-02	1.1414e+03
124	2.1520e-01	1.5063e-01	1.1386e-01	-1.0587e-01	4.8825e+02
125	6.8127e-01	2.8311e-02	2.1312e-01	1.0836e-01	1.4869e+03
126	3.8440e-01	1.5345e-01	1.6074e-01	2.2419e-02	6.3725e+02
127	4.7154e-01	1.2438e-02	7.9650e-02	-7.3601e-03	2.0000e+03
128	2.3065e-01	9.7496e-02	1.3629e-01	-3.4390e-02	1.0357e+03
129	-3.1985e-03	6.6185e-02	1.0797e-01	-1.0416e-01	1.0248e+03
130	9.9484e-01	1.8466e-01	1.3934e-01	3.1607e-01	2.5522e+02
131	5.6847e-01	1.8828e-01	3.4742e-01	-8.4310e-02	2.1381e+02
132	2.9461e-01	1.6674e-02	1.4425e-01	2.2721e-02	1.6053e+03
133	3.8663e-01	-2.4079e-03	1.8111e-01	-1.9932e-01	2.1427e+03
134	2.8600e-02	1.0447e-01	1.2100e-02	-1.1827e-01	7.1375e+02
135	4.5347e-03	1.6106e-01	-4.3976e-03	-1.1277e-01	3.5653e+02
136	1.6914e-01	1.5118e-01	1.1437e-01	-1.2520e-01	4.4707e+02
137	5.3883e-01	1.9542e-01	3.8523e-01	-8.2892e-02	4.0813e+01
138	4.5805e-01	9.9813e-02	2.4788e-01	4.7427e-02	1.2439e+03
139	5.1131e-01	8.9656e-02	2.6911e-01	-6.0275e-02	1.3882e+03
140	5.3134e-01	1.0307e-01	2.6155e-01	-1.2539e-01	1.1572e+03
141	3.6859e-01	1.0586e-02	3.0224e-01	1.1052e-01	1.8461e+03
142	4.4329e-02	1.5557e-01	2.2436e-02	-2.3334e-02	2.5824e+02
143	2.0235e-01	3.9491e-02	9.6130e-02	-1.2422e-01	1.5248e+03
144	3.3541e-01	1.4450e-01	1.3574e-01	-7.3577e-02	6.6799e+02
145	4.1992e-01	9.9779e-02	1.7553e-01	1.6374e-02	1.1629e+03
146	1.0192e+00	2.1236e-01	1.1333e-01	3.3693e-01	1.2624e+02
147	8.9547e-02	1.4082e-01	-2.7611e-02	4.3809e-03	4.5811e+02
148	1.6160e+00	1.9046e-01	-2.4254e-01	-1.3739e-01	1.0842e+03
149	9.2161e-01	7.5789e-02	2.7364e-01	1.0695e-01	1.2892e+03
150	7.2314e-01	7.9142e-02	2.5097e-01	5.5005e-02	1.3351e+03
151	5.5857e-01	1.8086e-01	3.3077e-01	-7.0160e-02	2.9457e+02
152	1.8351e-01	1.5032e-01	1.0057e-01	-9.8505e-02	4.9744e+02
153	7.9954e-01	4.8885e-02	2.1944e-01	3.0130e-02	1.6689e+03
154	7.9103e-01	1.3417e-01	3.7076e-01	3.3584e-02	9.0440e+02
155	6.9574e-02	2.6768e-02	1.1952e-01	9.4163e-03	1.2018e+03
156	4.4367e-01	3.3944e-02	1.3020e-01	3.9374e-03	1.9584e+03
157	4.4933e-01	1.6322e-01	3.4067e-01	-8.3607e-02	5.3025e+02
158	1.4542e+00	2.0506e-01	-3.6721e-01	-1.1243e-01	9.4648e+02
159	3.3532e-01	3.6154e-02	2.1746e-01	1.4088e-02	1.6362e+03
160	8.2098e-01	8.7732e-02	3.0149e-01	-4.0884e-02	1.3283e+03
161	1.3322e+00	1.6670e-01	-4.4160e-01	1.2555e-02	1.3257e+03
162	1.5510e-01	1.2095e-01	5.7358e-02	-8.0151e-02	7.7126e+02
163	5.6498e-01	1.8075e-01	3.7104e-01	-1.5604e-01	2.3245e+02
164	8.0103e-01	1.6327e-01	3.0992e-01	4.3445e-02	5.2807e+02
165	5.4845e-01	1.9822e-01	3.6881e-01	-1.3450e-01	7.8873e+01
166	3.7911e-01	1.8325e-01	2.0071e-01	-4.0924e-02	4.1786e+02
167	5.3921e-01	7.1724e-02	2.9106e-01	-1.0053e-01	1.4015e+03
168	2.9777e-01	1.1744e-02	6.9235e-02	-5.3769e-03	1.6414e+03
169	1.7220e-01	1.1034e-01	6.3903e-02	-9.2562e-02	8.8759e+02
170	5.1000e-02	4.5521e-02	1.0195e-01	8.0396e-03	1.1399e+03
171	6.7196e-01	4.8634e-02	2.5986e-01	-1.3274e-02	1.6051e+03
172	4.9773e-01	1.3014e-01	3.3521e-01	-7.4462e-02	8.9966e+02
173	1.4721e-01	1.8906e-01	9.1810e-02	-1.0072e-01	5.4184e+01
174	7.1341e-01	1.7721e-01	3.4545e-01	4.1809e-02	3.1431e+02
175	7.5989e-01	4.6665e-02	1.1409e-01	-6.2043e-02	1.6100e+03
176	1.3223e+00	9.0114e-02	-3.8318e-01	7.7822e-03	2.0822e+03
177	2.2022e-02	1.3697e-01	1.0400e-02	-1.9892e-01	3.9688e+02
178	2.9815e-01	7.1370e-02	1.9227e-01	-4.5978e-03	1.3287e+03
179	8.4628e-01	1.9047e-01	2.2639e-01	1.2661e-01	1.7507e+02
180	3.8290e-01	1.3658e-01	1.6416e-01	7.0723e-05	8.2628e+02
181	2.8224e-01	1.3352e-01	1.2724e-01	-3.5969e-02	7.2777e+02
182	8.4997e-02	1.2566e-01	8.8389e-02	-3.7795e-02	6.0893e+02
183	1.7250e-02	1.5509e-01	1.2287e-01	-1.8098e-01	3.3701e+02
184	9.0749e-01	1.5595e-01	1.4021e-01	1.5723e-01	4.7322e+02
185	5.4814e-01	7.7009e-02	1.9719e-01	-8.0763e-02	1.4312e+03
186	1.3215e+00	2.4978e-01	-3.3256e-01	8.3834e-02	4.0215e+02
187	4.9105e-01	1.9366e-01	4.3282e-01	-7.7776e-02	1.5236e+02
188	1.9560e-01	6.3496e-02	9.7913e-02	-5.6998e-02	1.3772e+03
189	1.0746e+00	1.6097e-01	-4.8507e-03	3.0335e-01	8.1650e+02
190	7.3088e-01	5.3715e-02	2.1898e-01	7.4624e-02	1.4947e+03
191	6.7617e-01	1.3037e-02	1.2343e-01	-5.2385e-04	1.5096e+03
192	5.2249e-02	1.4800e-01	5.1002e-02	-4.7240e-02	4.0858e+02
193	7.4366e-02	6.1347e-02	1.3916e-02	-2.6596e-02	1.0778e+03
194	1.3173e-01	1.7213e-01	1.0210e-01	-1.0254e-01	2.4412e+02
195	3.2427e-01	1.3585e-02	2.8060e-01	-1.3675e-02	1.7316e+03
196	-4.4521e-03	3.7489e-02	2.1542e-01	-6.3146e-02	1.1915e+03
197	3.0708e-02	1.3486e-01	8.7470e-02	-9.7727e-02	4.1889e+02
198	7.2290e-02	8.6402e-02	1.3739e-02	-6.5635e-02	8.1922e+02
199	2.2499e-01	8.4735e-02	1.0709e-01	-9.0798e-02	1.1340e+03
200	7.5537e-03	5.9550e-02	-7.1023e-02	-3.2300e-02	1.1184e+03
201	3.6352e-02	4.5070e-02	6.6734e-03	-4.2937e-02	1.2354e+03
202	1.7471e-01	5.2762e-02	7.4413e-02	1.3341e-04	1.3512e+03
203	2.6476e-01	3.2412e-02	2.0333e-01	-1.3647e-02	1.6850e+03
204	1.3523e-01	5.9241e-02	4.7643e-02	2.0180e-02	1.1945e+03
205	4.5261e-01	1.2816e-01	3.0491e-01	-3.4578e-02	9.9098e+02
206	5.7386e-01	2.0276e-01	2.5966e-01	-4.9679e-02	0.0000e+00
207	2.8839e-01	3.2172e-02	2.1878e-01	2.0085e-03	1.6355e+03
208	4.9255e-02	1.7296e-01	-5.9850e-02	-7.4671e-02	2.3923e+02
209	8.6008e-02	1.5573e-01	5.4528e-02	1.1055e-02	3.9378e+02
210	7.7660e-01	1.0787e-01	2.8736e-01	3.6235e-02	1.2003e+03
211	4.5067e-01	1.6660e-01	3.3422e-01	-1.9598e-02	4.9497e+02
212	7.9223e-02	1.9022e-01	3.4323e-03	-1.0580e-01	-3.0300e+00
213	3.3489e-01	1.6123e-02	3.1546e-01	4.2074e-02	1.6285e+03
214	4.4802e-02	1.9003e-01	2.5569e-03	-1.1534e-01	5.2834e+01
215	1.3121e-01	1.4079e-01	3.7468e-02	-8.6875e-02	5.1904e+02
216	1.1360e+00	2.4330e-01	-1.4932e-01	4.0435e-01	9.5579e+01
217	1.4629e-01	8.5563e-02	8.7015e-02	-3.9927e-02	1.0650e+03
218	5.1218e-01	1.9500e-01	4.0298e-01	-7.0165e-02	1.1501e+02
219	7.1457e-01	4.9858e-02	2.2009e-01	-7.4311e-02	1.5490e+03
220	2.7896e-01	6.7892e-02	1.5662e-01	-7.3615e-02	1.4059e+03
221	3.7454e-01	8.4050e-02	2.5671e-01	5.5807e-02	1.3127e+03
222	1.0469e-01	1.2093e-01	9.8181e-02	-3.0146e-02	7.0412e+02
223	3.1536e-01	8.8174e-02	8.9488e-02	2.1760e-02	1.2191e+03
224	4.6697e-01	3.2772e-03	2.3116e-01	1.3354e-01	1.9110e+03
225	6.7733e-01	2.0104e-01	3.7301e-01	-1.4802e-02	0.0000e+00
226	4.4660e-02	1.9139e-01	-1.9434e-02	-1.2447e-01	7.5241e+01
227	1.3034e+00	2.9000e-01	-4.6165e-01	1.3034e-01	1.7244e+02
228	8.1092e-01	6.0040e-02	1.6938e-01	-5.0241e-02	1.6860e+03
229	4.8114e-01	5.4129e-02	1.1054e-01	-4.9347e-02	1.7797e+03
230	2.2421e-01	1.7447e-01	1.1596e-01	-1.4303e-01	2.3087e+02
231	8.5754e-02	1.7597e-01	7.8818e-02	-8.0276e-02	2.0913e+02
232	1.6047e-01	9.9735e-02	6.0818e-02	-3.2301e-02	9.6962e+02
233	8.5788e-01	1.1861e-01	2.8336e-01	3.1340e-02	9.6871e+02
234	1.3603e+00	2.6252e-01	-3.2462e-01	6.5810e-02	4.3435e+02
235	4.0006e-01	1.1272e-01	2.2153e-01	-1.4442e-02	1.0883e+03
236	2.3993e-01	1.4153e-01	8.7441e-02	-1.3190e-01	5.6233e+02
237	8.2080e-01	1.2928e-01	3.1126e-01	4.7235e-02	9.5257e+02
238	1.1191e-01	2.6214e-02	4.4979e-02	-3.8285e-02	1.2650e+03
239	9.4578e-01	1.6356e-01	1.3977e-01	1.7512e-01	4.1375e+02
240	6.8132e-01	4.0529e-02	1.6004e-01	3.2833e-03	1.5814e+03
241	4.2672e-01	1.5716e-01	2.8189e-01	6.3728e-03	6.3954e+02
242	1.1162e+00	1.5000e-01	-9.7023e-02	2.2022e-01	9.8791e+02
243	1.0549e+00	1.1594e-01	2.0107e-04	1.6992e-01	1.1327e+03
244	2.7766e-01	1.6645e-01	1.4602e-01	-1.5025e-01	3.6089e+02
245	1.4154e-01	1.5995e-01	1.3270e-01	-1.5118e-01	3.6106e+02
246	5.1864e-01	1.4239e-01	3.1717e-01	-7.4709e-02	7.6581e+02
247	9.3091e-01	5.0691e-02	1.7554e-01	1.0026e-01	1.5221e+03
248	1.4112e+00	2.7577e-01	-3.9605e-01	-8.7792e-02	3.0053e+02
249	2.6477e-01	4.4608e-02	2.4960e-01	-1.0621e-01	1.5867e+03
250	1.5618e-01	4.4348e-02	5.5480e-02	8.0841e-03	1.3502e+03
251	5.2793e-01	1.2585e-01	2.7521e-01	-1.0073e-01	9.0171e+02
252	1.3913e+00	2.9329e-01	-4.6314e-01	-4.7482e-02	1.4038e+02
253	9.6976e-02	1.6295e-01	5.4077e-02	-8.3538e-02	3.4420e+02
254	2.8770e-01	6.6803e-02	1.7636e-01	-4.6443e-02	1.3953e+03
255	3.7488e-01	6.9059e-02	1.3784e-01	1.3477e-02	1.4496e+03
256	5.2022e-01	1.6606e-01	3.4461e-01	-2.7081e-02	4.2011e+02
257	1.4059e-01	3.7712e-04	1.2896e-01	-4.2800e-02	1.4225e+03
258	3.2274e-01	1.9539e-01	2.1939e-01	-1.1954e-01	6.9341e+01
259	2.9280e-02	8.7026e-02	9.6421e-02	-8.3943e-02	8.0407e+02
260	3.7471e-01	1.9872e-01	2.7021e-01	-1.5078e-01	0.0000e+00
261	1.2350e-01	1.3354e-02	5.5978e-02	-1.2705e-01	1.3644e+03
262	5.5296e-01	1.4646e-01	4.0058e-01	-9.0515e-02	6.4138e+02
263	2.4317e-01	1.8987e-01	1.3609e-01	-1.2355e-01	8.1382e+01
264	1.2009e-01	9.8132e-02	1.1899e-01	-1.5350e-02	9.0948e+02
265	-5.1894e-05	1.5136e-01	4.2886e-02	-8.1498e-02	4.0645e+02
266	2.3523e-02	1.8740e-01	-4.6826e-03	-9.0686e-02	4.2761e+01
267	3.5492e-02	8.3102e-02	7.3475e-02	-5.1120e-02	8.4067e+02
268	2.6674e-01	6.3525e-02	1.1787e-01	-8.3074e-02	1.4391e+03
269	4.6533e-01	1.8249e-01	3.6771e-01	-8.7957e-02	2.7987e+02
270	1.4016e-02	1.4080e-01	1.9600e-02	-2.4675e-02	5.0059e+02
271	7.3263e-02	1.2174e-01	5.1042e-02	-2.1371e-02	5.9744e+02
272	5.4089e-01	1.3924e-01	3.4349e-01	-1.3731e-01	7.6459e+02
273	6.2388e-02	9.6220e-02	1.0752e-01	-4.6269e-02	7.9916e+02
274	6.6975e-01	3.4442e-02	2.3808e-01	1.5650e-01	1.3860e+03
275	9.6995e-02	1.2789e-01	7.8088e-02	-1.0599e-01	6.2761e+02
276	8.2853e-01	7.4265e-02	2.8376e-01	-4.3940e-02	1.4290e+03
277	7.7551e-01	1.0236e-01	2.6972e-01	8.8380e-02	1.2193e+03
278	1.7822e-01	7.9977e-02	1.2034e-01	-3.9534e-02	1.1493e+03
279	4.8098e-01	1.4830e-01	3.2031e-01	-7.3890e-02	7.3334e+02
280	9.5253e-01	1.8282e-02	7.7960e-02	-1.1228e-02	1.6331e+03
281	4.7483e-01	1.0997e-01	2.6654e-01	3.2492e-03	1.1820e+03
282	5.0340e-01	1.6448e-01	3.0461e-01	-5.3887e-02	5.1283e+02
283	1.5828e-01	1.6421e-01	1.2944e-01	-9.3226e-02	3.3151e+02
284	4.5598e-01	4.0051e-02	1.3540e-01	3.6087e-02	1.8755e+03
285	1.9543e-01	1.8758e-01	1.6450e-01	-1.1563e-01	3.8689e+01
286	2.2158e-01	1.8957e-01	1.1749e-01	-1.3467e-01	6.3090e+01
287	2.5596e-02	1.7849e-01	-1.1351e-01	-1.2231e-01	2.3026e+02
288	1.3978e+00	1.7928e-01	-3.6707e-01	2.6961e-02	1.2667e+03
289	8.7032e-02	6.8375e-02	3.6712e-02	2.4552e-03	1.0787e+03
290	6.5566e-01	1.6072e-01	2.9722e-01	-2.2973e-02	4.6436e+02
291	1.4837e-01	9.5692e-02	7.1192e-02	-2.8287e-02	9.7711e+02
292	7.0304e-01	2.8377e-02	1.5402e-01	-5.4675e-02	1.5724e+03
293	2.8346e-01	1.9421e-01	1.4842e-01	-1.5474e-01	0.0000e+00
294	7.2019e-01	6.9405e-02	3.1122e-01	3.6438e-02	1.3582e+03
295	2.4855e-01	6.3185e-02	1.4191e-01	-8.6726e-02	1.4479e+03
296	5.5238e-01	4.9859e-02	3.3190e-01	-4.0961e-02	1.7670e+03
297	2.9962e-01	1.0150e-01	1.3107e-01	-4.0377e-02	1.0726e+03
298	5.8658e-01	1.9059e-01	3.2034e-01	-6.4750e-02	2.1498e+02
299	2.3464e-01	8.3140e-02	1.5663e-01	-1.3892e-02	1.1399e+03
300	1.7663e-01	6.5053e-02	1.0792e-01	-1.1768e-02	1.3066e+03
301	6.2798e-01	1.9124e-01	3.2486e-01	3.4995e-02	2.8947e+02
302	2.8745e-01	1.6396e-01	1.2524e-01	-8.3023e-02	4.1500e+02
303	1.2849e-01	1.0318e-01	4.1993e-02	-1.4786e-02	8.9714e+02
304	1.1985e+00	2.2759e-01	-2.1767e-01	3.4563e-01	4.8935e+02
305	3.1606e-01	1.7501e-01	2.1221e-01	-8.1390e-02	3.7645e+02
306	8.5744e-01	8.9568e-02	2.6923e-01	1.6425e-02	1.2337e+03
307	2.1314e+00	1.7184e-01	-1.0303e-01	-5.0873e-02	7.8416e+02
308	7.6788e-01	1.2145e-01	3.1986e-01	5.1490e-02	1.0107e+03
309	2.2440e-01	1.8874e-01	1.5492e-01	-1.3180e-01	4.1525e+01
310	7.9413e-01	3.7294e-02	1.8388e-01	6.1477e-03	1.6910e+03
311	2.6139e-01	1.9142e-02	1.2831e-01	-4.4427e-02	1.5279e+03
312	8.3038e-01	1.7468e-01	3.5606e-01	1.1236e-01	4.2716e+02
313	4.6965e-02	1.3540e-01	7.2272e-02	1.2344e-02	5.0267e+02
314	1.4593e-01	1.8989e-01	1.2592e-01	-1.0879e-01	6.7639e+01
315	2.4706e-01	1.8138e-01	1.1302e-01	-1.1874e-01	1.9145e+02
316	4.1016e-01	1.4945e-01	2.3757e-01	-3.7860e-02	6.3579e+02
317	1.5801e-01	6.1862e-02	1.1461e-01	-7.0939e-02	1.2565e+03
318	1.0049e+00	1.3171e-01	1.5931e-01	1.8553e-01	7.7687e+02
319	5.5111e-01	1.5035e-01	2.2109e-01	-1.6530e-01	5.6534e+02
320	2.5967e-02	4.6726e-03	-6.5753e-03	1.0517e-02	1.0176e+03
321	4.5902e-01	6.0910e-02	1.7038e-01	3.6205e-02	1.6535e+03
322	1.1096e-01	5.6023e-02	1.4443e-03	1.3318e-02	1.1591e+03
323	1.9382e-01	1.4868e-01	1.3960e-01	-8.1994e-02	5.1346e+02
324	6.6491e-01	-8.9133e-03	1.9460e-01	-1.3464e-01	1.4088e+03
325	8.0610e-02	1.6191e-01	1.0507e-01	-8.8281e-03	3.0845e+02
326	2.5510e-01	1.9041e-01	1.7557e-01	-1.4166e-01	8.0322e+01
327	1.7776e-01	9.5281e-02	9.3567e-02	-9.9424e-02	1.0155e+03
328	1.6028e-01	1.4438e-01	6.1312e-02	-1.0314e-01	5.4563e+02
329	2.0403e-02	7.2196e-02	1.6646e-02	-5.1386e-02	1.0071e+03
330	3.6935e-01	1.2021e-01	1.6038e-01	-1.3662e-03	9.5257e+02
331	8.2531e-02	2.9063e-02	9.6916e-02	-6.4022e-02	1.2874e+03
332	2.8286e-01	9.1772e-03	9.6370e-02	-5.5295e-03	1.5077e+03
333	3.9967e-02	1.0973e-02	1.6646e-01	9.8231e-02	9.6923e+02
334	1.7129e-02	9.5853e-02	-4.7295e-02	-1.0276e-01	7.2896e+02
335	1.0126e-01	1.4746e-01	6.6672e-02	-7.5025e-02	4.5509e+02
336	2.1206e-01	1.2891e-01	1.5168e-01	-1.0518e-01	7.1922e+02
337	2.0185e-01	2.9338e-02	1.1356e-01	-4.5705e-02	1.5928e+03
338	1.1898e+00	2.2837e-01	-1.6889e-01	3.5306e-01	3.9812e+02
339	9.1122e-02	1.6991e-01	9.7862e-02	-2.0951e-02	3.4241e+02
340	2.3549e-01	1.5325e-01	1.6324e-01	-7.9222e-02	4.9725e+02
341	4.1526e-01	1.1917e-01	2.7981e-01	9.8153e-02	1.1065e+03
342	2.1884e+00	1.2471e-01	1.1216e-02	-3.8897e-03	1.2471e+03
343	6.7517e-01	4.3247e-03	2.1802e-01	1.1539e-02	1.5007e+03
344	9.1195e-01	1.4023e-01	2.0799e-01	1.3798e-01	6.4589e+02
345	5.9843e-01	1.4157e-01	2.3531e-01	-8.1106e-02	6.8850e+02
346	1.6353e+00	2.2111e-01	-2.0777e-01	-7.5660e-02	7.1320e+02
347	3.2252e-01	5.1282e-02	2.0720e-01	-2.0082e-01	1.5839e+03
348	4.7448e-01	1.5921e-01	3.8367e-01	-5.5564e-02	5.8617e+02
349	3.9425e-01	1.8635e-01	2.6932e-01	-8.1206e-02	2.2405e+02
350	3.0363e-01	5.3971e-04	1.5814e-01	1.6303e-01	1.4585e+03
351	2.1080e-01	9.7841e-02	1.1735e-01	-6.8477e-02	1.0117e+03
352	1.9774e+00	2.3531e-01	-1.2126e-01	-4.5306e-02	-4.2225e+01
353	4.2229e-01	8.5435e-02	2.8062e-01	8.9220e-02	1.3834e+03
354	5.2693e-01	2.0093e-01	3.8236e-01	-7.0180e-02	9.5225e+01
355	5.0147e-01	1.0355e-01	2.5738e-01	-7.0801e-02	1.2101e+03
356	5.5610e-01	1.6053e-03	1.8924e-01	-1.0997e-01	1.7663e+03
357	1.3824e-01	1.4450e-01	9.3254e-02	-1.3036e-01	4.7080e+02
358	5.9166e-01	-1.7204e-03	2.2140e-01	-1.6898e-01	2.0775e+03
359	8.0759e-02	4.7717e-02	4.3718e-02	5.1985e-02	1.0988e+03
360	3.3141e-01	4.6186e-02	1.7745e-01	-1.6205e-02	1.6650e+03
361	2.5940e-01	1.7438e-01	1.5917e-01	-1.1879e-01	3.2614e+02
362	9.9752e-02	1.0452e-01	6.5045e-02	-5.1414e-02	7.9734e+02
363	5.3171e-01	6.2549e-02	1.4921e-01	-1.1714e-01	1.6693e+03
364	1.9922e-01	1.1723e-01	7.8683e-02	-6.4817e-02	8.3355e+02
365	9.0210e-01	1.4640e-01	1.8703e-01	1.2064e-01	6.3252e+02
366	8.6591e-01	8.2419e-02	2.6570e-01	3.3551e-02	1.3923e+03
367	5.5780e-01	1.0012e-02	2.5850e-01	3.9431e-02	1.8229e+03
368	3.6081e-01	1.4783e-01	1.5997e-01	-5.3053e-02	6.6488e+02
369	1.4395e-01	5.2216e-02	6.6919e-03	-2.7960e-02	1.3053e+03
370	9.1326e-01	7.9715e-02	2.1657e-01	9.5921e-03	1.2095e+03
371	1.2384e-01	1.4103e-01	5.0179e-02	-5.0615e-02	5.3044e+02
372	8.8656e-01	1.9758e-01	1.7686e-01	2.1067e-01	1.0412e+02
373	1.7287e-02	1.5089e-01	5.0712e-03	-1.0190e-01	3.7770e+02
374	1.2949e-01	1.7184e-03	1.4547e-01	-2.8375e-02	1.2985e+03
375	6.7909e-01	1.1734e-01	3.6451e-01	2.0359e-01	9.5936e+02
376	1.0321e+00	1.5408e-01	2.4017e-02	2.5158e-01	7.0253e+02
377	5.3140e-02	1.0294e-01	3.6221e-02	-9.8179e-02	6.8349e+02
378	4.1973e-01	1.3710e-01	2.6298e-01	5.5144e-02	8.2148e+02
379	6.4006e-01	4.1636e-02	3.8075e-01	2.8938e-02	1.5916e+03
380	2.6594e-01	8.2177e-02	1.7175e-01	-8.6068e-02	1.2246e+03
381	1.2645e+00	2.9174e-01	-4.4653e-01	3.3101e-01	3.1358e+02
382	1.2517e+00	2.5397e-01	-3.6962e-01	3.1592e-01	4.4552e+02
383	8.7968e-01	1.6037e-01	2.2415e-01	5.8719e-02	4.5514e+02
384	5.9328e-01	2.0358e-01	3.5302e-01	-4.8346e-02	7.6518e+01
385	1.4018e-01	2.8590e-02	3.6426e-02	5.1048e-02	1.3050e+03
386	-3.5908e-03	1.2667e-02	2.0428e-02	7.7662e-02	8.7359e+02
387	4.9520e-01	1.8316e-01	4.3769e-01	-4.1945e-02	3.1128e+02
388	2.0118e-01	1.5203e-01	1.5143e-01	-1.3323e-01	5.0282e+02
389	5.2305e-01	1.8908e-01	3.6523e-01	-1.2292e-01	1.4048e+02
390	4.1181e-02	3.6896e-02	-1.6399e-02	2.7236e-02	1.2034e+03
391	5.0843e-01	1.5310e-01	3.8132e-01	-5.5956e-02	6.8442e+02
392	4.5904e-02	3.3251e-03	-1.3888e-01	-7.5644e-02	1.4145e+03
393	4.6723e-01	5.6614e-02	1.8761e-01	2.9995e-02	1.7684e+03
394	3.5741e-01	1.9629e-01	2.5849e-01	-9.1522e-02	9.9458e+01
395	9.4682e-01	1.3972e-01	1.8892e-01	1.8612e-01	5.5654e+02
396	5.9295e-02	1.9033e-01	-1.2422e-02	-6.8548e-02	-1.2879e+02
397	1.7238e-02	6.5663e-02	2.9731e-02	-3.2030e-02	1.0021e+03
398	2.5378e-01	1.7582e-02	1.7370e-01	1.6314e-02	1.4961e+03
399	-1.7304e-03	4.9187e-02	1.0513e-01	-4.0310e-02	1.2435e+03
400	2.2752e-02	3.2004e-02	-5.3603e-02	-3.9684e-02	1.2037e+03
401	7.3755e-01	1.6334e-02	3.0003e-02	-5.5535e-02	1.4980e+03
402	1.0232e-01	1.6977e-02	1.1836e-01	-8.3352e-02	1.3615e+03
403	8.9440e-02	7.4897e-02	3.7903e-02	-3.9425e-02	1.0589e+03
404	2.7330e-01	5.5888e-02	1.0479e-01	-3.7043e-02	1.4339e+03
405	5.2335e-01	8.4220e-02	1.7932e-01	-1.7998e-01	1.3961e+03
406	8.4915e-02	4.2318e-02	3.8316e-02	-3.4426e-02	1.1496e+03
407	6.0329e-01	-1.2406e-03	2.0541e-01	4.3582e-02	2.3689e+03
408	3.4490e-01	1.1328e-01	1.8655e-01	-8.2722e-02	1.0335e+03
409	5.8960e-01	2.4676e-02	2.7717e-01	2.0536e-02	1.9195e+03
410	7.7410e-01	1.2897e-01	3.5142e-01	-2.6384e-02	8.9540e+02
411	2.9782e-01	8.4963e-02	1.9679e-01	1.3332e-02	1.2252e+03
412	7.6881e-02	1.7426e-01	8.8371e-03	-3.3188e-02	2.3756e+02
413	3.1782e-02	-1.3120e-03	9.9291e-02	1.2400e-01	1.0254e+03
414	4.6515e-01	1.2280e-01	2.8085e-01	-6.8990e-03	1.0127e+03
415	4.3511e-01	1.0803e-01	2.0113e-01	-1.1154e-02	1.2445e+03
416	1.8736e-01	1.7749e-01	1.0565e-01	-1.2716e-01	2.1987e+02
417	3.6830e-01	1.4839e-02	2.9447e-01	-8.4685e-02	1.9175e+03
418	4.3232e-01	1.9771e-01	3.7682e-01	-1.2693e-01	6.4328e+01
419	1.4309e-01	1.2827e-01	7.0210e-02	-6.2847e-02	6.5554e+02
420	1.2642e-01	1.5311e-01	1.0239e-01	-5.5524e-02	4.0011e+02
421	3.9947e-02	1.8931e-01	-3.7781e-02	-1.3361e-01	7.6923e+01
422	1.0185e+00	1.6597e-01	7.0749e-02	2.2485e-01	6.1510e+02
423	4.2143e-01	1.2786e-01	2.4894e-01	5.7274e-02	9.7591e+02
424	2.4672e-01	8.5589e-02	1.3914e-01	-8.9643e-02	1.2101e+03
425	4.0167e-01	-5.9092e-04	9.9159e-02	7.5262e-03	2.0010e+03
426	3.4716e-01	7.2560e-02	1.6097e-01	-2.4951e-02	1.3277e+03
427	1.4059e-01	1.5063e-01	6.5444e-02	-9.6339e-02	4.4870e+02
428	6.2148e-02	7.0639e-02	7.8540e-03	-2.8571e-02	1.0216e+03
429	4.8275e-01	1.7229e-01	3.7280e-01	-2.7361e-02	3.8120e+02
430	1.0589e+00	-1.5004e-04	-1.0199e-03	1.5554e-01	2.4382e+03
431	1.8753e-01	4.4575e-02	8.8756e-02	-9.0397e-02	1.4539e+03
432	4.4651e-01	9.0495e-02	2.3777e-01	6.6699e-02	1.3241e+03
433	2.2789e-01	1.9000e-01	1.4882e-01	-1.3270e-01	6.0299e+01
434	1.9750e-01	1.4204e-01	1.1089e-01	-7.8167e-02	5.7938e+02
435	5.9404e-01	9.9467e-02	2.7624e-01	-1.1750e-01	1.1994e+03
436	9.7529e-01	6.6511e-02	8.5403e-02	6.4905e-02	1.3092e+03
437	1.0458e-01	1.4326e-01	-1.9476e-02	-5.4089e-02	4.8000e+02
438	4.5119e-01	2.0099e-01	3.6684e-01	-6.0844e-02	5.5978e+01
439	5.8658e-01	2.0288e-01	4.0141e-01	-6.0646e-02	7.2799e+01
440	7.5782e-01	4.6671e-02	2.2784e-01	5.5727e-02	1.5591e+03
441	3.6791e-01	1.1198e-01	1.9316e-01	-3.1647e-02	1.0104e+03
442	8.3786e-01	4.6451e-02	2.4735e-01	-6.3845e-02	1.6560e+03
443	2.2899e-01	3.0118e-02	7.8089e-02	-7.6154e-02	1.5979e+03
444	6.0987e-01	3.4394e-02	2.5597e-01	1.3175e-02	1.8411e+03
445	1.3234e+00	2.1535e-01	-3.1366e-01	1.1590e-01	7.9948e+02
446	2.0152e-01	1.7771e-01	1.2292e-01	-7.7756e-02	2.3856e+02
447	7.7901e-02	1.1299e-02	-1.6155e-02	-1.0628e-01	1.3730e+03
448	3.5975e-02	-1.2578e-02	-6.6452e-02	5.0735e-02	1.0253e+03
449	2.2207e-01	1.1254e-03	2.2736e-01	-1.9407e-02	1.6857e+03
450	1.3933e-02	1.7007e-01	-4.9080e-02	-1.7043e-01	1.1886e+02
451	3.4259e-02	1.3759e-01	1.0737e-01	-8.7054e-02	4.4881e+02
452	2.4920e-01	-8.6850e-03	-3.0395e-02	5.3777e-02	1.4940e+03
453	2.4700e-01	4.4884e-02	1.1718e-01	1.8748e-02	1.5528e+03
454	3.3698e-01	2.3898e-02	2.4513e-01	-3.7499e-02	1.7008e+03
455	8.5987e-02	1.4785e-01	9.8755e-02	-1.1477e-02	4.1484e+02
456	2.2452e-01	1.3078e-01	1.1196e-01	-9.8485e-02	6.9495e+02
457	1.9736e-01	4.4104e-03	1.2834e-01	-7.7117e-02	1.6113e+03
458	1.5753e-01	5.9657e-05	6.7004e-02	-3.4384e-02	1.3886e+03
459	2.7982e-02	4.6301e-02	-2.1996e-02	-5.4250e-03	1.1380e+03
460	4.6635e-02	1.1329e-01	1.5416e-02	4.3721e-02	6.4646e+02
461	5.6981e-01	2.0288e-01	4.2283e-01	1.5751e-03	3.5635e+01
462	8.4185e-02	1.8928e-01	3.7338e-02	-1.1145e-01	1.3477e+01
463	6.3728e-02	4.5648e-02	4.8538e-02	-1.1864e-01	1.2604e+03
464	1.5920e-01	8.1079e-02	9.5354e-02	-5.4969e-02	1.1585e+03
465	6.8092e-02	1.7142e-01	8.4905e-03	-9.1951e-02	3.1390e+02
466	6.5914e-02	1.4646e-01	9.2413e-02	-2.5701e-02	4.3294e+02
467	4.9617e-01	7.7741e-02	1.7930e-01	-1.3449e-01	1.5474e+03
468	1.6801e-02	2.0799e-02	-2.9124e-03	5.3376e-02	1.1566e+03
469	4.9697e-01	1.6387e-01	3.5607e-01	-9.6662e-02	5.1765e+02
470	9.8480e-02	2.0593e-03	-2.8435e-02	8.0171e-02	1.3539e+03
471	4.1658e-01	1.1862e-02	1.5552e-01	3.0355e-02	2.0523e+03
472	7.1388e-02	1.4882e-01	5.0318e-02	2.8016e-02	4.1252e+02
473	4.8964e-01	2.0107e-01	3.6369e-01	-8.5889e-02	5.1888e+01
474	1.8322e-01	4.1214e-02	1.0480e-01	-3.3274e-02	1.4668e+03
475	9.0801e-02	1.8192e-01	1.0679e-01	-4.4185e-02	7.4958e+01
476	8.6287e-01	4.2787e-02	1.7050e-01	-7.5432e-02	1.6298e+03
477	5.2406e-01	1.5958e-01	3.6281e-01	-9.9424e-02	4.7230e+02
478	4.5002e-01	1.7785e-01	3.7834e-01	-8.1289e-02	3.9483e+02
479	5.3878e-01	1.7982e-01	4.0531e-01	-1.0925e-01	2.9923e+02
480	4.1386e-01	1.2286e-01	2.1591e-01	3.5041e-02	1.0210e+03
481	7.1591e-01	1.9648e-01	4.3282e-01	4.9223e-02	1.2068e+02
482	6.2244e-01	1.1993e-01	2.5743e-01	8.1162e-02	9.3868e+02
483	2.1701e-01	2.3703e-02	2.5068e-02	2.3389e-02	1.4439e+03
484	3.0712e-01	1.9184e-01	2.0386e-01	-8.6384e-02	4.9543e+01
485	2.0828e-01	2.7221e-02	1.0134e-01	-7.0565e-02	1.6136e+03
486	4.6150e-01	7.1532e-02	1.8585e-01	1.8219e-02	1.5481e+03
487	4.3319e-01	1.4082e-01	2.9743e-01	-1.8954e-02	8.3074e+02
488	5.0473e-01	1.8408e-01	3.9788e-01	-6.7410e-02	2.8456e+02
489	3.3871e-01	6.6942e-02	1.6806e-01	-7.5508e-02	1.4551e+03
490	1.2117e-01	9.4334e-02	6.2648e-02	-1.2871e-02	9.1024e+02
491	1.5514e-01	1.5255e-01	1.4710e-01	-1.5626e-01	3.8781e+02
492	1.0253e-01	1.8960e-01	6.8965e-02	-8.8569e-02	8.5077e+01
493	3.7044e-01	1.5884e-01	1.8270e-01	-2.1773e-02	5.7575e+02
494	1.9620e-01	9.4414e-02	1.0359e-01	-4.8357e-02	1.1045e+03
495	2.9392e-01	1.8917e-01	2.1482e-01	-7.8555e-02	5.4680e+01
496	9.9210e-01	1.4473e-01	1.1348e-01	1.8336e-01	6.5961e+02
497	6.4842e-02	1.0396e-01	-1.7166e-02	-2.4337e-02	7.4429e+02
498	6.6064e-02	1.8077e-01	5.5518e-03	-5.4047e-02	2.6085e+02
499	2.9746e-01	3.1434e-02	2.2345e-01	8.5425e-03	1.6030e+03
500	4.5319e-01	3.5805e-02	2.0717e-01	3.3537e-02	1.9435e+03
501	2.3306e-01	5.9449e-02	8.7919e-02	-2.3711e-02	1.4044e+03