variables="k","x","y","vx","vy","pressure"
zone i=8064 j=1
0	5.4447e-01	4.8685e-02	8.0991e-02	1.3120e-02	1.6483e+03
1	5.0626e-01	1.8710e-01	3.3493e-01	-7.5298e-02	0.0000e+00
2	8.0796e-02	1.3110e-01	4.5820e-02	-7.4734e-03	6.5432e+02
3	6.0602e-01	-1.7452e-03	1.7966e-01	6.9211e-02	1.8066e+03
4	4.1897e-02	1.7030e-01	-3.5764e-02	-8.4918e-02	7.0251e+01
5	9.2134e-01	1.0615e-01	8.7555e-02	6.0589e-02	1.4985e+03
6	2.5342e-01	1.7144e-01	1.1205e-01	-6.3706e-02	3.0965e+01
7	1.9713e-01	1.0844e-01	1.4347e-01	-8.1862e-02	8.7522e+02
8	-4.5408e-03	2.2706e-02	3.5856e-02	-4.3257e-02	1.2546e+03
9	8.1701e-01	2.1643e-01	2.5770e-01	2.3480e-01	9.5912e+01
10	2.2932e-01	1.7420e-01	1.3421e-01	-9.1094e-02	7.8053e+01
11	4.8410e-01	1.0272e-01	1.6461e-01	3.2915e-03	1.0260e+03
12	4.3715e-01	1.3473e-01	1.7045e-01	5.0732e-02	5.8469e+02
13	6.6976e-01	1.8194e-01	2.6664e-01	-2.7418e-02	3.3436e+02
14	9.6847e-01	5.4458e-02	-1.7304e-02	9.2424e-02	2.3408e+03
15	4.9325e-01	1.1511e-01	1.9932e-01	2.7702e-02	9.2119e+02
16	4.2016e-01	1.4485e-01	1.4448e-01	2.2342e-03	5.5981e+02
17	1.0597e+00	1.7123e-01	-1.2880e-01	2.5926e-01	1.5329e+03
18	1.2643e+00	3.1005e-01	-4.0756e-01	-4.3499e-02	-1.1341e+01
19	4.0185e-02	1.3677e-01	7.1146e-02	-6.7258e-02	4.1729e+02
20	5.0465e-01	8.4476e-02	1.7848e-01	4.6586e-02	1.2723e+03
21	3.3766e-01	1.7838e-01	1.6770e-01	-1.4586e-01	0.0000e+00
22	3.3946e-01	2.9147e-02	1.5087e-01	-2.1420e-02	1.3374e+03
23	2.7115e-01	1.5192e-01	1.0377e-01	-1.0417e-01	3.7686e+02
24	1.0123e+00	8.5456e-02	-6.8991e-02	5.7635e-02	2.1108e+03
25	-1.6703e-03	1.1622e-01	9.4810e-02	-4.3934e-02	7.4098e+02
26	1.8053e-01	1.7460e-02	4.0084e-02	5.6053e-02	1.4559e+03
27	2.0826e-01	5.1707e-02	6.9825e-02	-5.4476e-02	1.4062e+03
28	4.2529e-01	1.2812e-02	2.1504e-01	-1.2650e-01	1.4030e+03
29	5.8666e-01	1.5182e-01	2.8377e-01	-7.3821e-02	6.3844e+02
30	-2.5343e-03	7.5341e-02	3.7257e-01	-3.2502e-04	1.1727e+03
31	2.5211e-01	7.0280e-02	6.9303e-02	-2.6114e-03	1.1541e+03
32	3.5853e-01	1.7795e-01	1.6641e-01	-8.0406e-02	8.9484e+01
33	6.5824e-01	1.8911e-01	2.4179e-01	-1.9289e-02	1.7890e+02
34	1.0829e+00	6.1851e-02	-4.0549e-02	3.3374e-02	2.0553e+03
35	1.1322e+00	2.7300e-01	-3.2846e-01	2.2546e-01	4.3422e+02
36	3.5524e-01	8.8999e-02	1.6793e-01	-3.5390e-02	8.4556e+02
37	1.2494e+00	3.1372e-01	-3.5881e-01	8.9153e-03	-5.9152e+00
38	1.0577e+00	1.4116e-01	-1.8686e-01	1.0427e-01	1.7121e+03
39	1.0236e+00	1.8382e-01	-1.2571e-01	2.9863e-01	1.2000e+03
40	5.7788e-01	1.3171e-01	2.2967e-01	-1.1088e-01	8.5913e+02
41	1.6858e-01	1.0273e-01	1.2123e-01	-6.5134e-02	9.8553e+02
42	4.2380e-01	3.2250e-02	1.6459e-01	-3.6612e-02	1.3152e+03
43	1.0777e+00	1.4677e-01	-1.5763e-01	1.8369e-01	1.7943e+03
44	5.5857e-01	1.1720e-01	2.7292e-01	-8.0648e-02	1.0914e+03
45	1.2474e+00	3.1808e-01	-4.1488e-01	2.1790e-03	0.0000e+00
46	4.9299e-01	1.8627e-01	2.9010e-01	-6.0670e-02	6.9495e+01
47	6.0916e-01	1.5997e-01	2.9394e-01	-1.1022e-01	4.7006e+02
48	1.1953e-01	1.7386e-01	9.2855e-02	-1.1105e-01	6.1445e+01
49	5.5041e-01	8.7202e-02	1.1115e-01	-1.3025e-01	1.3428e+03
50	1.1649e+00	2.6144e-01	-3.3926e-01	1.5360e-01	5.6169e+02
51	1.1542e-01	1.2759e-01	6.0534e-02	-7.0998e-02	6.9260e+02
52	2.2497e-01	3.3331e-02	8.5974e-02	-7.5882e-02	1.4961e+03
53	7.5705e-03	1.7348e-01	-8.2660e-02	-1.2456e-01	0.0000e+00
54	2.6068e-01	1.3404e-01	8.2457e-02	-4.1460e-02	5.2571e+02
55	3.2239e-01	1.1162e-01	1.2167e-01	-7.0862e-02	6.4421e+02
56	6.8171e-01	1.4568e-01	2.2802e-01	1.6939e-01	7.7869e+02
57	4.6056e-01	1.0755e-01	1.2341e-01	1.0445e-01	8.8631e+02
58	1.3263e+00	2.8763e-01	-2.7520e-01	-1.7533e-01	1.2703e+01
59	5.3891e-01	2.3751e-02	1.5237e-01	-9.2150e-02	1.9025e+03
60	6.3132e-02	1.7545e-01	3.9134e-02	-7.6863e-02	5.2224e+01
61	1.1288e+00	3.2475e-01	-4.6772e-01	2.4335e-01	0.0000e+00
62	1.0950e+00	1.1242e-01	-6.6847e-02	7.1424e-02	2.0215e+03
63	3.1910e-01	1.5762e-01	1.6299e-01	-9.5936e-02	2.5259e+02
64	4.4679e-01	-1.6598e-02	1.0229e-01	1.3185e-02	9.9246e+02
65	-7.9032e-03	-9.4181e-04	-1.1195e-01	1.0173e-02	0.0000e+00
66	5.6345e-02	-1.3433e-02	-1.2922e-01	1.6977e-01	1.3677e+03
67	1.4285e-01	1.4507e-01	7.4224e-02	-1.0149e-01	4.8068e+02
68	5.2144e-02	2.5363e-02	-1.7293e-02	-5.2188e-02	1.3171e+03
69	1.3219e-01	7.0158e-02	3.9215e-02	-2.3057e-02	1.2479e+03
70	5.5886e-02	1.0048e-01	3.7482e-02	-1.6018e-02	9.4176e+02
71	6.7087e-01	-2.0664e-03	2.2337e-01	7.0908e-02	2.0310e+03
72	7.9899e-01	1.3477e-01	2.5006e-01	9.4941e-02	1.0666e+03
73	3.4589e-01	-1.5372e-03	1.4782e-01	1.9554e-01	1.1336e+03
74	2.2429e-01	6.1447e-02	1.1215e-01	-2.7250e-02	1.2758e+03
75	1.2786e+00	3.0324e-01	-4.1263e-01	-3.6400e-02	6.2677e+01
76	8.1301e-01	1.5169e-01	2.5074e-01	8.8224e-02	9.8496e+02
77	5.1860e-01	1.6078e-01	3.4176e-01	-6.6436e-02	4.4572e+02
78	5.3475e-01	9.1187e-02	1.5487e-01	2.1971e-03	1.2898e+03
79	1.8161e-01	1.1174e-01	6.8275e-02	-5.1980e-02	8.7151e+02
80	4.7823e-01	5.9291e-03	1.0575e-01	-6.3762e-03	1.7413e+03
81	6.8451e-01	7.9055e-02	2.6699e-01	1.1908e-01	1.4208e+03
82	1.7990e-01	1.6396e-01	6.2074e-02	-7.4867e-02	1.4115e+02
83	1.3238e+00	2.6312e-01	-2.9004e-01	-1.6361e-01	3.2398e+02
84	1.4511e-01	1.7335e-01	9.0117e-02	-4.3772e-02	5.6042e+01
85	1.1308e+00	2.9151e-01	-3.8771e-01	2.9466e-01	2.7848e+02
86	9.3296e-02	7.4531e-02	6.5729e-02	-9.6603e-02	1.1618e+03
87	1.3117e-01	1.1172e-01	4.9178e-02	-2.5742e-02	8.4375e+02
88	1.6799e-01	1.7120e-01	9.9930e-02	-8.1305e-02	1.5442e+01
89	7.6017e-01	1.2469e-01	2.1982e-01	4.5764e-02	1.0510e+03
90	1.0279e+00	2.8661e-01	-2.5366e-01	4.4981e-01	-4.3124e+00
91	6.0979e-01	1.7521e-01	3.3051e-01	-7.7909e-02	3.4890e+02
92	2.7198e-01	8.3473e-02	1.0908e-01	-4.8045e-02	1.0234e+03
93	5.8965e-01	1.6201e-01	3.3734e-01	-7.0213e-02	4.4809e+02
94	1.1857e+00	2.6313e-01	-3.5734e-01	1.6857e-01	4.2365e+02
95	7.8038e-02	6.3053e-02	2.9858e-02	3.4753e-02	1.1544e+03
96	1.0759e+00	5.7295e-02	-1.4731e-01	1.6741e-01	1.9576e+03
97	4.5361e-01	1.8696e-01	2.9740e-01	-1.1043e-01	0.0000e+00
98	3.6383e-01	1.2934e-01	1.1135e-01	-3.9075e-02	5.4359e+02
99	1.0279e+00	1.6435e-01	-1.1420e-01	2.1411e-01	1.4469e+03
100	4.9974e-01	2.8041e-02	1.0680e-01	-9.0450e-03	1.7240e+03
101	5.0701e-01	5.6457e-02	1.4496e-01	-5.4110e-02	1.5701e+03
102	1.1522e+00	2.8196e-01	-4.1529e-01	2.4031e-01	3.8886e+02
103	1.2806e+00	2.1374e-01	-3.3162e-01	3.9027e-03	6.8214e+02
104	3.0614e-02	1.5333e-01	-2.7584e-02	-6.6963e-02	3.1761e+02
105	7.1842e-01	1.4241e-01	2.8194e-01	1.4504e-01	7.6310e+02
106	2.8878e-01	1.7477e-01	1.2852e-01	-5.6826e-02	5.6127e+01
107	6.5012e-01	1.6231e-01	2.2460e-01	6.5090e-02	5.4186e+02
108	4.7093e-01	8.7182e-02	1.2595e-01	3.1366e-02	1.2320e+03
109	1.0642e+00	2.6072e-01	-3.1567e-01	2.9152e-01	4.9492e+02
110	1.2803e+00	2.1606e-01	-2.9477e-01	-1.8749e-02	6.6695e+02
111	1.1643e+00	2.8438e-01	-3.5167e-01	1.7182e-01	2.9981e+02
112	2.0115e-01	1.5130e-01	1.0392e-01	-8.5658e-02	3.7482e+02
113	1.8315e-01	1.7195e-01	8.6557e-02	-7.7783e-02	6.3439e+01
114	5.2170e-01	1.2139e-01	2.6184e-01	-4.2663e-02	8.6281e+02
115	2.7935e+00	6.5300e-02	-2.7807e-01	5.6242e-02	1.9202e+03
116	1.0986e+00	2.0483e-01	-1.7542e-01	2.4936e-01	1.2105e+03
117	1.3031e+00	2.1043e-01	-2.9894e-01	-6.1539e-02	7.3465e+02
118	7.9392e-01	1.8925e-01	2.9900e-01	1.8168e-01	4.4693e+02
119	5.1783e-01	7.4547e-02	1.4777e-01	9.7660e-03	1.3972e+03
120	1.0524e+00	2.2619e-01	-2.5721e-01	2.8935e-01	8.4280e+02
121	5.4000e-01	1.1208e-01	2.0902e-01	-4.5807e-02	1.0541e+03
122	5.3008e-01	1.8422e-01	3.2018e-01	-2.2218e-02	8.6361e+01
123	5.4543e-01	1.0030e-01	1.7473e-01	-8.1174e-02	1.2043e+03
124	2.3176e-01	1.3873e-01	1.0790e-01	-4.2427e-02	5.2894e+02
125	7.1612e-01	2.4878e-02	1.0149e-01	5.1497e-02	1.6871e+03
126	4.0693e-01	1.5533e-01	1.0469e-01	5.2469e-03	3.6016e+02
127	4.9004e-01	2.0018e-02	1.0079e-01	-6.7448e-03	1.7721e+03
128	2.4967e-01	9.0091e-02	7.8935e-02	-5.7792e-02	9.7217e+02
129	-3.2474e-03	6.1746e-02	1.0791e-01	3.4164e-03	1.2543e+03
130	9.9677e-01	2.4220e-01	-1.0271e-01	4.0936e-01	5.0224e+02
131	6.2069e-01	1.7891e-01	2.9279e-01	-1.1629e-02	3.0868e+02
132	3.2174e-01	1.6609e-02	1.3073e-01	-6.3429e-03	1.2645e+03
133	4.1530e-01	-2.5722e-03	1.8259e-01	-2.0039e-01	1.6675e+03
134	2.8226e-02	8.3753e-02	7.0589e-03	-1.3580e-01	1.0663e+03
135	1.0934e-02	1.4706e-01	4.8734e-02	-7.1560e-02	2.8201e+02
136	1.8815e-01	1.3369e-01	1.2457e-01	-9.5809e-02	6.3685e+02
137	5.9820e-01	1.8240e-01	3.3592e-01	-7.4352e-02	2.4478e+02
138	4.9703e-01	1.0554e-01	2.4764e-01	3.8196e-02	9.6054e+02
139	5.5245e-01	8.3173e-02	2.1025e-01	-5.4456e-02	1.3962e+03
140	5.6835e-01	8.0030e-02	1.3993e-01	-1.0524e-01	1.3635e+03
141	4.1256e-01	3.0919e-02	2.2223e-01	6.9127e-02	1.3309e+03
142	4.4191e-02	1.5199e-01	-1.3874e-02	-3.7928e-02	3.2270e+02
143	2.1304e-01	2.3983e-02	6.9153e-02	-9.4080e-02	1.5413e+03
144	3.5170e-01	1.3232e-01	8.5471e-02	-6.9372e-02	5.3387e+02
145	4.4928e-01	1.0599e-01	1.7659e-01	-9.5038e-03	9.0465e+02
146	1.0106e+00	2.7979e-01	-1.8866e-01	4.1497e-01	0.0000e+00
147	8.8442e-02	1.4577e-01	4.9726e-02	4.2864e-02	4.3681e+02
148	1.5838e+00	1.7221e-01	-1.4138e-01	-9.7617e-02	1.0136e+03
149	9.4905e-01	1.0234e-01	1.0816e-01	1.9156e-01	1.6905e+03
150	7.5505e-01	9.1112e-02	1.6463e-01	1.0263e-01	1.3294e+03
151	6.0715e-01	1.7086e-01	2.5715e-01	-3.9412e-02	4.2447e+02
152	1.9720e-01	1.4009e-01	8.7314e-02	-3.3302e-02	5.2194e+02
153	8.3499e-01	5.3033e-02	1.7049e-01	6.0846e-02	1.7181e+03
154	8.4507e-01	1.4514e-01	2.5370e-01	9.5930e-02	1.1562e+03
155	8.1472e-02	2.2963e-02	6.9002e-02	-5.3908e-02	1.4288e+03
156	4.6559e-01	3.8308e-02	1.2199e-01	1.4365e-02	1.4864e+03
157	5.0017e-01	1.5353e-01	3.0660e-01	-5.0774e-02	4.8490e+02
158	1.3952e+00	1.8304e-01	-3.3782e-01	-9.9753e-02	7.3852e+02
159	3.7228e-01	3.2690e-02	2.1152e-01	-7.5766e-02	1.1639e+03
160	8.5950e-01	8.4120e-02	1.3741e-01	5.9203e-02	1.6085e+03
161	1.2633e+00	1.6910e-01	-3.8746e-01	9.8884e-03	9.8033e+02
162	1.6218e-01	1.1146e-01	6.9177e-02	-2.8719e-02	8.4991e+02
163	6.1900e-01	1.5609e-01	2.6549e-01	-1.7827e-01	5.8749e+02
164	8.4598e-01	1.7501e-01	2.1703e-01	1.0333e-01	8.0410e+02
165	6.0444e-01	1.8960e-01	3.3084e-01	4.5277e-02	1.3038e+02
166	4.0734e-01	1.7495e-01	1.5392e-01	-5.2475e-02	1.6305e+02
167	5.6908e-01	5.9323e-02	1.0917e-01	-7.5594e-02	1.5952e+03
168	3.0838e-01	1.3216e-02	5.5972e-02	-1.2601e-02	1.2267e+03
169	1.8067e-01	9.6452e-02	7.6009e-02	-6.3292e-02	1.0450e+03
170	5.9647e-02	3.7175e-02	-1.6036e-02	-1.0581e-01	1.3075e+03
171	7.1842e-01	4.7229e-02	2.5685e-01	1.0039e-01	1.5555e+03
172	5.4781e-01	1.2156e-01	2.7807e-01	-3.3936e-02	9.1404e+02
173	1.6084e-01	1.7256e-01	6.4805e-02	-1.2233e-01	2.2400e+02
174	7.6198e-01	1.9225e-01	2.4367e-01	1.3954e-01	3.5075e+02
175	7.7176e-01	4.3997e-02	4.2479e-02	1.0288e-01	1.6691e+03
176	1.2601e+00	9.6847e-02	-3.9418e-01	5.5955e-02	1.7734e+03
177	2.1776e-02	1.1377e-01	8.2703e-03	-8.1026e-02	7.1790e+02
178	3.2566e-01	7.0813e-02	1.8593e-01	4.2450e-03	9.5117e+02
179	8.7657e-01	2.1320e-01	1.1619e-01	2.1488e-01	4.5580e+02
180	4.1557e-01	1.3841e-01	1.8637e-01	2.9806e-03	5.3014e+02
181	2.9767e-01	1.3041e-01	6.7638e-02	-1.5375e-03	5.3350e+02
182	9.8491e-02	1.1928e-01	9.1151e-02	-5.5539e-02	7.6199e+02
183	3.8703e-02	1.2935e-01	1.3537e-01	-1.5494e-01	5.0071e+02
184	9.2008e-01	1.8827e-01	5.8791e-03	2.2145e-01	1.0090e+03
185	5.7335e-01	6.1129e-02	1.1981e-01	-6.6981e-02	1.5511e+03
186	1.2681e+00	2.5443e-01	-2.5537e-01	-6.6510e-02	4.6878e+02
187	5.5702e-01	1.8651e-01	3.8542e-01	-2.5815e-02	8.6583e+01
188	2.0915e-01	5.8084e-02	7.1819e-02	-6.7543e-03	1.3353e+03
189	1.0602e+00	2.1619e-01	-1.7872e-01	3.4879e-01	9.8760e+02
190	7.5466e-01	5.7567e-02	7.5469e-02	2.5586e-02	1.5421e+03
191	7.0086e-01	1.8163e-02	6.6699e-02	2.1196e-01	2.0152e+03
192	6.0068e-02	1.4198e-01	3.2497e-02	-2.8122e-03	4.0669e+02
193	7.7159e-02	5.6991e-02	1.1711e-02	-1.2449e-02	1.2553e+03
194	1.4996e-01	1.5667e-01	1.2798e-01	-7.3742e-02	2.9261e+02
195	3.7385e-01	1.4309e-02	2.9913e-01	-1.2827e-02	1.3379e+03
196	-4.5587e-03	3.8186e-02	2.1517e-01	-6.9917e-02	1.3092e+03
197	3.4199e-02	1.1682e-01	-5.5725e-02	-8.9884e-02	6.6094e+02
198	7.0362e-02	7.9850e-02	1.8289e-02	-1.5154e-02	1.1203e+03
199	2.3775e-01	7.0289e-02	6.8534e-02	-7.2935e-02	1.2384e+03
200	1.7781e-02	5.6617e-02	7.2300e-02	1.4669e-02	1.2645e+03
201	2.8440e-02	4.4357e-02	-7.6890e-02	-9.2514e-03	1.2942e+03
202	1.9113e-01	4.5399e-02	9.9960e-02	-6.8117e-02	1.4256e+03
203	2.9838e-01	3.0163e-02	1.7096e-01	-1.0448e-02	1.3114e+03
204	1.4041e-01	5.9363e-02	-4.5684e-03	-1.6644e-02	1.3684e+03
205	4.9878e-01	1.2354e-01	2.9425e-01	-3.5197e-02	8.1934e+02
206	6.1151e-01	1.9282e-01	1.9482e-01	-3.4860e-02	8.1905e+01
207	3.1617e-01	3.4966e-02	7.7940e-02	3.9557e-02	1.2412e+03
208	3.9348e-02	1.5523e-01	-5.8361e-02	-1.0928e-01	2.5809e+02
209	9.6262e-02	1.5528e-01	5.5861e-02	-2.7020e-02	4.2526e+02
210	8.1200e-01	1.1798e-01	1.7234e-01	7.7142e-02	1.4331e+03
211	4.9881e-01	1.6296e-01	2.6635e-01	-2.4438e-02	3.9030e+02
212	8.1600e-02	1.7475e-01	2.1322e-02	-6.9553e-02	7.6178e+01
213	3.7847e-01	2.3087e-02	1.9791e-01	6.0354e-02	1.1868e+03
214	4.5197e-02	1.7182e-01	1.6804e-03	-9.2787e-02	7.7106e+01
215	1.3974e-01	1.3030e-01	6.5973e-02	-4.3878e-02	6.3567e+02
216	1.0970e+00	3.1119e-01	-3.6380e-01	3.2766e-01	1.9789e+02
217	1.5968e-01	7.6997e-02	7.7335e-02	-5.4716e-02	1.2641e+03
218	5.7442e-01	1.8387e-01	3.3991e-01	-9.5344e-02	1.6664e+02
219	7.4712e-01	5.2405e-02	9.6027e-02	5.2519e-02	1.6124e+03
220	3.0043e-01	5.4719e-02	1.3457e-01	-1.1966e-02	1.1531e+03
221	4.1262e-01	9.3425e-02	2.2233e-01	4.0594e-02	8.5039e+02
222	1.1918e-01	1.1544e-01	7.2753e-02	-1.2087e-02	8.4680e+02
223	3.2815e-01	8.2591e-02	6.9100e-02	-4.9795e-02	9.0558e+02
224	5.0665e-01	2.0832e-03	1.9580e-01	-9.9786e-02	1.8203e+03
225	7.3690e-01	2.0478e-01	3.5433e-01	6.9415e-02	1.0846e+02
226	4.1642e-02	1.7266e-01	-8.5940e-03	-9.3843e-02	8.8719e+01
227	1.2332e+00	2.9920e-01	-3.8947e-01	6.6812e-04	1.6810e+02
228	8.3623e-01	5.3238e-02	1.1415e-01	-2.8313e-02	1.7272e+03
229	5.0035e-01	4.9077e-02	1.3247e-01	1.5384e-02	1.6014e+03
230	2.4535e-01	1.5690e-01	1.3779e-01	-7.9145e-02	3.2858e+02
231	9.5969e-02	1.6860e-01	4.1982e-02	1.6243e-02	1.1550e+02
232	1.6733e-01	9.5689e-02	1.6614e-02	-9.5015e-03	1.0679e+03
233	8.9302e-01	1.3080e-01	1.3834e-01	7.8640e-02	1.2917e+03
234	1.3018e+00	2.6665e-01	-3.0223e-01	-8.0183e-02	3.1978e+02
235	4.3022e-01	1.0890e-01	1.6576e-01	-2.7827e-02	8.4468e+02
236	2.5609e-01	1.2465e-01	9.5338e-02	-6.3533e-02	6.0926e+02
237	8.6806e-01	1.4371e-01	2.3872e-01	1.1097e-01	1.2843e+03
238	1.2328e-01	3.1365e-02	1.0202e-01	6.7859e-02	1.3975e+03
239	9.5664e-01	2.0074e-01	-3.8971e-02	2.9880e-01	8.7733e+02
240	7.0995e-01	5.0609e-02	1.5790e-01	3.7310e-02	1.4735e+03
241	4.7140e-01	1.5711e-01	2.7092e-01	7.1916e-03	4.2859e+02
242	1.0852e+00	1.8191e-01	-2.5208e-01	1.7093e-01	1.4809e+03
243	1.0428e+00	1.4630e-01	-1.0384e-01	1.6667e-01	1.7936e+03
244	2.9475e-01	1.5145e-01	7.4464e-02	-4.0187e-02	3.4344e+02
245	1.5897e-01	1.3837e-01	6.7380e-02	-1.2109e-01	5.0090e+02
246	5.6610e-01	1.3044e-01	2.4265e-01	-6.8449e-02	9.1494e+02
247	9.4036e-01	6.4300e-02	-4.2439e-02	5.6018e-02	2.2627e+03
248	1.3558e+00	2.5739e-01	-2.5733e-01	-1.0790e-01	2.6086e+02
249	2.9915e-01	3.9713e-02	1.7809e-01	7.0501e-03	1.3076e+03
250	1.6265e-01	4.7496e-02	3.6476e-02	-3.3181e-03	1.4843e+03
251	5.7156e-01	1.1193e-01	2.3447e-01	-1.1932e-01	1.0822e+03
252	1.3347e+00	2.7915e-01	-2.1212e-01	-1.0202e-01	1.6720e+01
253	1.0726e-01	1.4812e-01	6.7161e-02	-7.5576e-02	4.7901e+02
254	3.1496e-01	6.1794e-02	1.9478e-01	-2.4668e-02	1.0989e+03
255	3.9332e-01	7.2093e-02	6.7308e-02	-2.8402e-02	9.7246e+02
256	5.7152e-01	1.6061e-01	2.9028e-01	-4.4350e-02	5.1121e+02
257	1.5537e-01	2.3691e-04	5.0291e-02	-4.0193e-02	1.2580e+03
258	3.5443e-01	1.7877e-01	1.6291e-01	-7.3831e-02	9.8919e+01
259	4.3357e-02	7.7676e-02	7.0245e-02	-3.2909e-02	1.0717e+03
260	4.1276e-01	1.8276e-01	2.2676e-01	-8.9760e-02	2.6570e+01
261	1.3361e-01	5.5497e-03	1.0930e-01	7.5588e-02	1.3923e+03
262	6.0148e-01	1.2690e-01	2.2915e-01	-9.0529e-02	9.6781e+02
263	2.6372e-01	1.7213e-01	1.2872e-01	-8.1830e-02	9.6923e+01
264	1.3243e-01	9.6237e-02	6.3765e-02	-3.8724e-03	1.0179e+03
265	-5.8725e-05	1.3920e-01	4.2900e-02	-7.0015e-02	5.9817e+02
266	2.1730e-02	1.7351e-01	-3.9939e-02	-9.9488e-02	0.0000e+00
267	4.9764e-02	7.9551e-02	6.6005e-02	1.5878e-02	1.0001e+03
268	2.8216e-01	4.8052e-02	1.0495e-01	-1.2792e-01	1.2827e+03
269	5.2039e-01	1.7362e-01	3.3437e-01	-6.5829e-02	2.6589e+02
270	1.9509e-02	1.3429e-01	5.2905e-02	-5.4661e-02	4.8942e+02
271	8.2219e-02	1.2015e-01	5.0308e-02	-1.7589e-02	7.3376e+02
272	5.9278e-01	1.1545e-01	2.6935e-01	-1.5972e-01	9.8000e+02
273	8.6799e-02	8.8557e-02	1.2884e-01	-2.1123e-02	1.0664e+03
274	7.0595e-01	5.3962e-02	1.9997e-01	7.1884e-02	1.4684e+03
275	1.0845e-01	1.1198e-01	5.2967e-02	-8.1812e-02	8.9490e+02
276	8.6216e-01	7.9860e-02	1.0888e-01	4.7198e-02	1.6035e+03
277	8.1030e-01	1.2011e-01	1.6572e-01	1.2754e-01	1.3749e+03
278	1.8748e-01	7.4887e-02	2.7955e-02	-3.0378e-02	1.2491e+03
279	5.2775e-01	1.3765e-01	2.6830e-01	-4.3030e-02	7.3749e+02
280	9.6162e-01	1.6531e-02	-2.1657e-02	8.4111e-02	2.6975e+03
281	5.1755e-01	1.1253e-01	2.6540e-01	2.7030e-02	9.5767e+02
282	5.5323e-01	1.5974e-01	2.7997e-01	-4.2782e-02	5.3073e+02
283	1.7503e-01	1.4719e-01	1.1516e-01	-9.1714e-02	4.5702e+02
284	4.7720e-01	4.8184e-02	1.1863e-01	3.0189e-02	1.4627e+03
285	2.1773e-01	1.7340e-01	9.7643e-02	-7.0023e-02	6.6245e+01
286	2.4040e-01	1.7274e-01	1.3339e-01	-6.2493e-02	9.4539e+01
287	1.1707e-02	1.6100e-01	-4.6243e-02	-1.2298e-01	2.0843e+02
288	1.3398e+00	1.7676e-01	-3.3194e-01	-4.2418e-02	8.5919e+02
289	8.8943e-02	6.3922e-02	2.1696e-02	-5.4160e-02	1.2807e+03
290	6.9064e-01	1.6281e-01	1.7059e-01	7.9414e-02	4.6472e+02
291	1.6317e-01	8.7232e-02	6.8386e-02	-3.9448e-02	1.1336e+03
292	7.1709e-01	3.3943e-02	8.7094e-02	-2.9835e-02	1.4318e+03
293	3.0616e-01	1.7318e-01	1.3468e-01	-9.2368e-02	1.2866e+02
294	7.6017e-01	7.5489e-02	2.6191e-01	6.1267e-02	1.5414e+03
295	2.6312e-01	5.3534e-02	1.0452e-01	-7.6281e-02	1.2820e+03
296	6.0367e-01	4.0855e-02	3.5678e-01	-7.1810e-02	1.6967e+03
297	3.2023e-01	9.6360e-02	1.2814e-01	-2.8206e-02	8.0309e+02
298	6.3530e-01	1.8489e-01	2.4974e-01	-2.3806e-02	2.6723e+02
299	2.5515e-01	8.2490e-02	1.4263e-01	-3.8610e-02	1.0204e+03
300	1.9563e-01	6.4598e-02	1.2648e-01	-1.1490e-02	1.3456e+03
301	6.8243e-01	1.9647e-01	3.2265e-01	7.0030e-02	1.0836e+01
302	3.0640e-01	1.5248e-01	1.1344e-01	-6.0386e-02	3.0535e+02
303	1.4155e-01	9.9835e-02	9.4819e-02	-5.2504e-03	1.0028e+03
304	1.1469e+00	2.8470e-01	-4.1339e-01	3.1235e-01	4.3349e+02
305	3.4786e-01	1.6422e-01	1.9293e-01	-4.2360e-02	2.4797e+02
306	8.8840e-01	9.2757e-02	1.5198e-01	1.2512e-02	1.5430e+03
307	2.1203e+00	1.6511e-01	-3.0356e-02	-2.7607e-03	8.6384e+02
308	8.1578e-01	1.3517e-01	2.3433e-01	1.3322e-01	1.1186e+03
309	2.4663e-01	1.7239e-01	1.3045e-01	-5.8418e-02	8.0146e+01
310	8.1498e-01	4.2994e-02	1.0168e-01	4.2306e-02	1.7716e+03
311	2.7955e-01	5.8884e-03	1.3763e-01	-1.0732e-01	1.4380e+03
312	8.8155e-01	2.0113e-01	2.3617e-01	2.3383e-01	6.1384e+02
313	5.8450e-02	1.3617e-01	1.4470e-02	-3.0875e-02	4.7272e+02
314	1.6625e-01	1.7302e-01	1.3329e-01	-8.1945e-02	-8.9347e+00
315	2.6767e-01	1.6810e-01	1.5118e-01	-4.9381e-02	1.1289e+02
316	4.4114e-01	1.4811e-01	1.8136e-01	1.9571e-02	4.6153e+02
317	1.7293e-01	5.6273e-02	9.0277e-02	-3.6100e-02	1.4069e+03
318	1.0140e+00	1.7224e-01	-6.1853e-02	2.7395e-01	1.3531e+03
319	5.9019e-01	1.3023e-01	2.1203e-01	-1.1069e-01	8.7045e+02
320	2.2115e-02	2.4151e-03	-1.9926e-03	1.1635e-01	1.0990e+03
321	4.8300e-01	7.2693e-02	1.5159e-01	5.5943e-02	1.3186e+03
322	1.1578e-01	5.5936e-02	2.6826e-02	-2.6524e-02	1.3618e+03
323	2.1532e-01	1.3809e-01	1.3328e-01	-3.8652e-02	5.3401e+02
324	7.0017e-01	-9.2185e-03	3.0558e-01	-1.3695e-01	1.7512e+03
325	9.3353e-02	1.6175e-01	5.2694e-02	-2.1239e-02	3.4502e+02
326	2.7970e-01	1.7645e-01	1.3056e-01	-4.9606e-02	6.4837e+01
327	1.9488e-01	8.4737e-02	1.0662e-01	-5.0096e-02	1.1177e+03
328	1.7154e-01	1.3076e-01	8.6101e-02	-7.2660e-02	6.1636e+02
329	1.8818e-02	6.4936e-02	-2.7044e-02	-6.9348e-02	1.1320e+03
330	3.9267e-01	1.1736e-01	1.2116e-01	-3.7595e-02	6.3876e+02
331	9.8668e-02	2.1341e-02	1.1894e-01	-5.0838e-02	1.4653e+03
332	2.9466e-01	1.6072e-02	3.2230e-02	5.1065e-02	1.3523e+03
333	5.0336e-02	2.8526e-02	7.1596e-02	1.2147e-01	1.1757e+03
334	1.2291e-02	7.8794e-02	4.5235e-02	-1.2177e-01	1.0246e+03
335	1.0929e-01	1.3948e-01	4.1359e-02	-3.6953e-02	5.0435e+02
336	2.3367e-01	1.1772e-01	1.1729e-01	-5.6943e-02	7.5311e+02
337	2.1267e-01	2.9901e-02	3.0525e-02	-2.4712e-02	1.4518e+03
338	1.1453e+00	2.7524e-01	-3.4853e-01	2.1064e-01	4.4641e+02
339	1.1027e-01	1.6630e-01	1.3269e-01	-7.1272e-02	2.7102e+02
340	2.5914e-01	1.4121e-01	1.3576e-01	-7.5966e-02	4.5992e+02
341	4.5799e-01	1.3081e-01	2.2542e-01	5.8793e-02	6.9419e+02
342	2.1885e+00	1.2369e-01	2.6673e-02	-1.4000e-02	1.2467e+03
343	7.1675e-01	2.7981e-03	1.3890e-01	2.3082e-01	1.2173e+03
344	9.3475e-01	1.7485e-01	8.3169e-02	2.7677e-01	1.1876e+03
345	6.3530e-01	1.2953e-01	2.1169e-01	-7.3823e-02	9.0051e+02
346	1.6073e+00	2.0974e-01	-1.9632e-01	-7.7424e-02	7.8097e+02
347	3.5476e-01	2.6716e-02	2.4938e-01	-7.9284e-02	1.2546e+03
348	5.3527e-01	1.5369e-01	3.6192e-01	-3.1504e-02	5.0314e+02
349	4.3543e-01	1.7644e-01	2.2600e-01	-3.2359e-02	2.7744e+02
350	3.2468e-01	1.3076e-03	1.6975e-01	-1.2755e-01	1.2729e+03
351	2.2612e-01	8.8208e-02	1.0339e-01	-3.3033e-02	1.0792e+03
352	1.9657e+00	2.2074e-01	-1.8512e-02	-1.2046e-01	2.5615e+02
353	4.6297e-01	9.2996e-02	1.3621e-01	-6.1908e-03	1.0628e+03
354	5.8367e-01	1.9297e-01	3.3130e-01	-3.9477e-02	1.1379e+02
355	5.3702e-01	9.3687e-02	2.2146e-01	-4.6972e-02	1.2806e+03
356	5.8581e-01	2.5219e-03	4.0564e-02	2.3544e-02	1.6602e+03
357	1.5143e-01	1.2776e-01	6.9814e-02	-6.4174e-02	7.1847e+02
358	6.1782e-01	-1.8831e-03	1.7824e-01	-1.6981e-01	1.6926e+03
359	8.4850e-02	5.0003e-02	1.9133e-02	-1.5212e-02	1.3241e+03
360	3.5888e-01	4.4605e-02	1.9366e-01	-5.0981e-02	1.2538e+03
361	2.8066e-01	1.6117e-01	1.0511e-01	-5.1354e-02	2.8031e+02
362	1.0284e-01	1.0055e-01	7.9430e-03	-9.8699e-03	9.4785e+02
363	5.5980e-01	4.3944e-02	2.0664e-01	-1.0315e-01	1.8018e+03
364	2.1364e-01	1.0731e-01	6.6043e-02	-7.5054e-02	9.1929e+02
365	9.2432e-01	1.7861e-01	7.0132e-02	2.6688e-01	1.1042e+03
366	9.0016e-01	8.8971e-02	1.4979e-01	-1.1811e-02	1.6484e+03
367	5.8970e-01	1.8542e-02	1.5597e-01	-2.9254e-02	1.8042e+03
368	3.8928e-01	1.3993e-01	1.5104e-01	-4.8059e-02	4.9980e+02
369	1.4628e-01	5.6799e-02	7.3895e-03	3.7362e-02	1.3414e+03
370	9.3670e-01	8.8164e-02	8.8959e-02	9.4781e-02	1.9731e+03
371	1.3093e-01	1.3591e-01	4.1064e-02	-3.1803e-03	5.8075e+02
372	9.0576e-01	2.4193e-01	9.0915e-03	3.3347e-01	1.7698e+02
373	1.7684e-02	1.3078e-01	1.8186e-02	-1.3370e-01	4.5220e+02
374	1.4539e-01	1.7135e-03	-2.1075e-03	-2.5488e-02	1.4431e+03
375	7.2572e-01	1.4971e-01	2.7805e-01	1.9202e-01	6.7149e+02
376	1.0225e+00	1.9830e-01	-1.3443e-01	2.9412e-01	1.0868e+03
377	5.0463e-02	9.3545e-02	3.8246e-03	-3.4860e-02	9.6027e+02
378	4.5666e-01	1.4378e-01	1.7976e-01	4.1861e-02	5.8504e+02
379	6.8947e-01	4.6374e-02	2.1889e-01	1.6396e-02	1.5949e+03
380	2.8939e-01	6.3554e-02	1.4427e-01	-1.2981e-01	1.1690e+03
381	1.1871e+00	3.2701e-01	-5.2042e-01	1.1619e-01	8.3566e+01
382	1.1891e+00	2.8860e-01	-4.3036e-01	1.2345e-01	2.6200e+02
383	9.0139e-01	1.7963e-01	5.3408e-02	1.7071e-01	1.0012e+03
384	6.4608e-01	1.9917e-01	3.1096e-01	7.7114e-03	5.9652e+01
385	1.4107e-01	3.5414e-02	1.7826e-03	3.5453e-02	1.4492e+03
386	-3.7006e-03	6.4935e-03	2.1909e-02	-4.7060e-02	1.4032e+03
387	5.5966e-01	1.7526e-01	3.5705e-01	-3.1461e-02	2.5369e+02
388	2.2442e-01	1.3901e-01	1.3798e-01	-3.0989e-02	5.2206e+02
389	5.7863e-01	1.7198e-01	3.2810e-01	-7.9710e-02	3.7073e+02
390	4.0143e-02	4.3403e-02	-1.9522e-02	8.0793e-02	1.2609e+03
391	5.6585e-01	1.4562e-01	3.2255e-01	-2.1260e-02	6.6002e+02
392	5.0534e-02	1.5081e-02	5.7566e-02	7.3114e-02	1.1873e+03
393	4.9240e-01	6.4681e-02	1.0411e-01	8.4534e-02	1.4136e+03
394	3.9680e-01	1.8255e-01	2.2422e-01	-1.0250e-01	1.5941e+02
395	9.6352e-01	1.7769e-01	5.6596e-03	3.4079e-01	1.1455e+03
396	5.7522e-02	1.7444e-01	7.5571e-04	-8.5171e-02	3.8151e+01
397	1.3901e-02	5.8178e-02	-4.4904e-02	-1.1002e-01	1.2420e+03
398	2.7540e-01	1.4964e-02	7.2323e-02	3.0109e-02	1.2480e+03
399	-1.7755e-03	5.0742e-02	1.0493e-01	2.2276e-02	1.2460e+03
400	1.0482e-02	3.5638e-02	-7.1307e-02	8.3430e-02	1.3233e+03
401	7.5649e-01	1.6206e-02	7.0810e-02	2.1744e-01	1.4387e+03
402	1.1443e-01	1.0250e-03	1.2922e-01	-2.0935e-01	1.4143e+03
403	9.4088e-02	6.9195e-02	2.5935e-02	-4.3061e-02	1.2520e+03
404	2.9381e-01	5.3136e-02	1.2054e-01	1.6833e-02	1.2094e+03
405	5.4031e-01	5.6413e-02	3.9213e-02	-1.1730e-01	1.6250e+03
406	8.7994e-02	3.1774e-02	1.0656e-03	-6.6769e-03	1.3877e+03
407	6.2906e-01	-1.3760e-03	2.2613e-01	4.2736e-02	1.8839e+03
408	3.6475e-01	1.0608e-01	6.3777e-02	-6.8076e-02	7.0938e+02
409	6.3110e-01	2.4730e-02	2.9356e-01	6.9874e-02	1.7712e+03
410	8.2147e-01	1.2992e-01	1.7448e-01	3.9397e-02	1.1955e+03
411	3.2064e-01	8.5720e-02	1.4751e-01	6.9917e-03	9.3054e+02
412	8.0580e-02	1.6653e-01	3.6257e-02	-3.1732e-02	2.2809e+02
413	3.9103e-02	-1.4367e-03	-2.5181e-02	1.2408e-01	1.2783e+03
414	5.0530e-01	1.2519e-01	2.4911e-01	3.1042e-02	8.5047e+02
415	4.6188e-01	1.1991e-01	1.9671e-01	7.9861e-02	8.0492e+02
416	2.0337e-01	1.6236e-01	1.0783e-01	-6.0606e-02	3.5289e+02
417	4.1095e-01	1.9538e-02	2.9121e-01	1.5769e-01	1.3240e+03
418	4.8978e-01	1.8337e-01	3.3433e-01	-4.8641e-02	1.0430e+02
419	1.5678e-01	1.1846e-01	7.8946e-02	-5.1708e-02	7.7858e+02
420	1.4625e-01	1.4678e-01	1.3729e-01	-3.9527e-02	4.6993e+02
421	3.0360e-02	1.7283e-01	-4.2889e-02	-4.1816e-02	6.8166e+01
422	1.0169e+00	2.1148e-01	-1.1864e-01	3.3497e-01	8.9469e+02
423	4.6198e-01	1.3900e-01	2.0522e-01	5.4903e-02	5.4136e+02
424	2.6720e-01	7.2358e-02	1.3428e-01	-5.3871e-02	1.1468e+03
425	4.3118e-01	-6.8224e-04	2.3873e-01	7.7981e-03	1.6369e+03
426	3.6864e-01	7.7345e-02	1.3479e-01	3.4133e-02	9.3154e+02
427	1.4561e-01	1.3461e-01	4.1347e-02	-7.5447e-02	6.3127e+02
428	6.4268e-02	6.3677e-02	-2.2663e-03	-6.9185e-02	1.2237e+03
429	5.3861e-01	1.6973e-01	3.2875e-01	6.9990e-03	4.1758e+02
430	1.0387e+00	-2.8968e-04	-2.1419e-01	1.5522e-01	3.0221e+03
431	2.0420e-01	3.8949e-02	9.2573e-02	-4.8601e-02	1.4705e+03
432	4.8392e-01	1.0081e-01	1.9556e-01	6.0859e-02	1.0574e+03
433	2.4945e-01	1.7436e-01	1.2610e-01	-6.9424e-02	7.4315e+01
434	2.1212e-01	1.2992e-01	9.4649e-02	-7.5078e-02	5.9366e+02
435	6.2835e-01	8.1830e-02	1.3143e-01	-7.9341e-02	1.3684e+03
436	9.8244e-01	8.3224e-02	-2.8715e-02	1.2088e-01	1.9493e+03
437	9.9952e-02	1.3454e-01	-3.1238e-02	-2.4934e-02	5.7920e+02
438	5.0679e-01	1.8570e-01	3.2486e-01	-1.3071e-01	2.1028e+02
439	6.4690e-01	2.0048e-01	3.5658e-01	1.2997e-02	5.6414e+01
440	7.8676e-01	6.2386e-02	1.7418e-01	7.1376e-02	1.7354e+03
441	3.9086e-01	1.0686e-01	9.3943e-02	-2.7920e-02	7.3014e+02
442	8.6828e-01	3.6179e-02	1.2445e-01	1.4714e-02	1.7021e+03
443	2.3759e-01	3.0162e-02	6.2811e-02	-2.1081e-02	1.4944e+03
444	6.5388e-01	2.8093e-02	3.5747e-01	-2.8076e-02	1.8091e+03
445	1.2665e+00	2.2468e-01	-3.4309e-01	-2.4990e-02	5.8949e+02
446	2.1677e-01	1.6747e-01	5.4059e-02	-4.3966e-02	1.4311e+02
447	7.2112e-02	8.4246e-03	-7.2582e-02	-3.8963e-02	1.5120e+03
448	3.7892e-02	-1.3068e-02	-6.2294e-02	5.1782e-02	1.2720e+03
449	2.4868e-01	7.4249e-04	1.0892e-01	8.6314e-02	1.4575e+03
450	1.3035e-02	1.4414e-01	2.2479e-02	-1.4123e-01	2.5352e+02
451	5.0531e-02	1.2892e-01	1.1247e-01	-1.6580e-02	5.6816e+02
452	2.3851e-01	-8.9701e-03	1.0653e-01	5.4423e-02	1.4611e+03
453	2.6371e-01	4.0283e-02	1.3247e-01	9.2922e-04	1.3998e+03
454	3.7071e-01	1.8592e-02	1.4586e-01	-1.0608e-01	1.3488e+03
455	1.0175e-01	1.4893e-01	6.6630e-02	1.8241e-02	4.7341e+02
456	2.4202e-01	1.1813e-01	1.1507e-01	-3.4790e-02	7.0178e+02
457	2.1770e-01	5.2988e-03	6.8852e-02	-3.5284e-03	1.5675e+03
458	1.6890e-01	9.8242e-06	1.5913e-01	8.6372e-03	1.3505e+03
459	2.7813e-02	4.5445e-02	9.6265e-03	-3.5349e-02	1.3143e+03
460	4.9316e-02	1.0753e-01	5.9676e-02	-1.0557e-01	7.7128e+02
461	6.3242e-01	1.9619e-01	3.2528e-01	-1.2410e-02	6.9605e+01
462	9.1926e-02	1.7404e-01	5.7216e-02	-5.3822e-02	6.7649e+01
463	7.1684e-02	3.8596e-02	6.8855e-02	2.4871e-02	1.3291e+03
464	1.6927e-01	7.9827e-02	6.1498e-02	9.4928e-03	1.1964e+03
465	7.0960e-02	1.5758e-01	-2.0704e-02	-6.4391e-02	3.7931e+02
466	7.7882e-02	1.4112e-01	3.5978e-02	-8.8746e-02	4.7226e+02
467	5.1709e-01	6.6918e-02	9.8470e-02	-2.6622e-02	1.4868e+03
468	1.0295e-02	2.3611e-02	-3.9840e-02	-1.8409e-02	1.3583e+03
469	5.4963e-01	1.4680e-01	3.0527e-01	-8.0193e-02	6.1019e+02
470	9.6399e-02	8.7629e-03	3.7581e-02	6.9713e-02	1.4559e+03
471	4.3732e-01	2.0305e-02	8.0044e-02	9.9535e-02	1.4326e+03
472	8.0302e-02	1.5130e-01	5.6734e-02	1.3914e-02	3.6485e+02
473	5.4662e-01	1.9022e-01	3.1109e-01	-3.6058e-02	5.9570e+01
474	2.0110e-01	3.8029e-02	1.0994e-01	-3.0404e-02	1.4861e+03
475	1.1182e-01	1.7842e-01	1.2607e-01	-9.8220e-02	0.0000e+00
476	8.8304e-01	4.3682e-02	9.5001e-02	1.2815e-02	1.8105e+03
477	5.7834e-01	1.5000e-01	2.9155e-01	-3.5983e-02	6.5278e+02
478	5.0889e-01	1.6886e-01	3.3549e-01	-2.4919e-02	3.9956e+02
479	5.9784e-01	1.6403e-01	3.2626e-01	-7.9066e-02	4.8463e+02
480	4.4703e-01	1.2987e-01	2.2055e-01	6.9961e-02	6.8420e+02
481	7.8147e-01	2.1117e-01	3.4585e-01	1.7750e-01	1.6029e+02
482	6.6227e-01	1.3095e-01	2.3059e-01	7.7259e-02	9.0577e+02
483	2.2909e-01	2.7095e-02	1.1781e-01	-5.8447e-04	1.4916e+03
484	3.3633e-01	1.7980e-01	1.7537e-01	-9.9104e-02	0.0000e+00
485	2.2807e-01	1.5003e-02	9.5574e-02	-5.6093e-02	1.4399e+03
486	4.9251e-01	7.8573e-02	2.0473e-01	4.6243e-02	1.2750e+03
487	4.7563e-01	1.4215e-01	2.7706e-01	2.3718e-02	6.6034e+02
488	5.6768e-01	1.7169e-01	3.9107e-01	-4.3139e-02	3.7911e+02
489	3.6915e-01	5.9530e-02	2.1811e-01	-4.3485e-02	1.0172e+03
490	1.2649e-01	9.2424e-02	3.1740e-02	-1.3791e-02	1.0737e+03
491	1.7750e-01	1.3645e-01	1.3227e-01	-5.4112e-02	5.9262e+02
492	1.0832e-01	1.7421e-01	1.0535e-02	-9.6751e-02	2.9167e+01
493	3.9254e-01	1.5216e-01	1.1956e-01	-5.7890e-02	4.3214e+02
494	2.1342e-01	8.5960e-02	1.0649e-01	-3.4676e-02	1.0484e+03
495	3.2385e-01	1.7644e-01	1.3846e-01	-9.2818e-02	6.4974e+01
496	9.9446e-01	1.8117e-01	-7.4945e-02	2.4021e-01	1.1335e+03
497	7.0502e-02	1.0126e-01	8.1518e-02	5.4053e-03	8.8275e+02
498	6.8073e-02	1.7514e-01	6.8341e-03	-7.8344e-02	0.0000e+00
499	3.3399e-01	3.1038e-02	2.4744e-01	-1.1654e-02	1.3090e+03
500	4.7628e-01	3.9026e-02	1.6814e-01	6.2399e-02	1.5548e+03
501	2.5189e-01	4.7643e-02	9.1496e-02	-8.1166e-02	1.3345e+03