variables="k","x","y","vx","vy","pressure"
zone i=8064 j=1
0	2.5228e-01	1.4188e-01	7.9963e-02	1.2342e-01	1.5135e+03
1	3.8712e-01	2.1770e-01	2.0770e-01	-3.9991e-02	2.9421e+02
2	1.0654e-02	3.7705e-01	-7.8545e-02	-3.2984e-01	4.5071e+01
3	3.7487e-01	-2.9780e-03	-8.4478e-02	7.0300e-02	2.3633e+03
4	1.3912e-02	4.3901e-01	2.0783e-02	-4.2011e-01	-8.4461e+01
5	7.0206e-01	1.2914e-01	-1.4547e-01	5.9166e-02	8.0669e+02
6	2.9091e-02	3.8725e-01	-7.0079e-02	-4.3400e-01	8.3378e+01
7	9.2630e-02	1.7134e-01	9.0182e-02	-1.0642e-01	1.4397e+03
8	-6.1221e-03	3.2028e-02	3.6919e-02	1.0019e-01	2.2279e+03
9	2.0714e-01	2.6096e-01	1.4169e-01	-5.1934e-02	3.3745e+02
10	7.3546e-03	5.8841e-01	9.8025e-03	-1.1479e-01	0.0000e+00
11	2.3597e-01	2.3901e-01	1.7187e-01	1.7065e-03	4.6273e+02
12	1.8547e-01	2.5504e-01	2.1252e-01	-4.9786e-02	4.6967e+02
13	3.4199e-01	2.3113e-01	1.8753e-01	6.3073e-02	2.8838e+02
14	7.1511e-01	6.5813e-02	-1.8086e-01	-4.2595e-02	1.4006e+03
15	2.6968e-01	2.6309e-01	2.6014e-01	5.9359e-02	6.2298e+01
16	1.1023e-01	3.0780e-01	2.0082e-01	-3.1225e-01	3.0019e+02
17	8.5424e-01	1.4430e-01	-1.6730e-01	3.3696e-02	5.1827e+02
18	1.3035e+00	2.2007e-01	-1.6723e-01	-7.5109e-03	1.4740e+02
19	4.8593e-03	3.3544e-01	3.7939e-02	-2.8392e-01	2.5471e+02
20	2.9482e-01	2.0646e-01	1.7195e-01	1.4192e-01	6.9751e+02
21	1.0421e-01	3.0677e-01	2.0997e-01	-1.3330e-01	3.8171e+02
22	2.5418e-01	3.1145e-02	9.6596e-02	6.8551e-02	2.0733e+03
23	7.5876e-02	3.3878e-01	8.8367e-02	-3.2864e-01	6.4210e+01
24	7.4953e-01	6.0876e-02	-1.9883e-01	3.3810e-02	1.3249e+03
25	-2.0517e-03	2.2672e-01	9.5103e-02	-1.9917e-01	9.4750e+02
26	8.9535e-02	4.5251e-02	1.0619e-01	2.7913e-02	2.3914e+03
27	8.4404e-02	1.0280e-01	5.7316e-02	1.7468e-03	2.0399e+03
28	2.8016e-01	1.5513e-04	9.5494e-02	4.4698e-02	2.4560e+03
29	3.4777e-01	1.4441e-01	8.0265e-02	6.6538e-02	1.3246e+03
30	-3.2039e-03	1.2282e-01	3.7317e-01	-1.1620e-01	1.6683e+03
31	1.2243e-01	9.1546e-02	2.4342e-02	-6.1975e-02	2.1608e+03
32	1.3597e-01	2.6495e-01	1.4668e-01	-2.0367e-01	4.6436e+02
33	4.1863e-01	1.9231e-01	1.1267e-01	1.3306e-01	6.2727e+02
34	7.6849e-01	6.8808e-03	-2.3862e-01	-1.9843e-02	1.4989e+03
35	8.8403e-01	1.4854e-01	-1.5343e-01	-4.8161e-02	4.5477e+02
36	1.7562e-01	1.2268e-01	5.5381e-02	-1.2581e-02	1.8369e+03
37	1.2937e+00	2.2676e-01	-1.4786e-01	7.4109e-02	8.8716e+01
38	8.1496e-01	5.2853e-02	-2.5242e-01	1.5285e-02	1.2859e+03
39	8.6581e-01	1.5936e-01	-1.2660e-01	6.8131e-02	3.6817e+02
40	2.9980e-01	1.5001e-01	8.4374e-02	1.3301e-01	1.3548e+03
41	7.5181e-02	2.1519e-01	8.0976e-02	-7.2565e-02	1.0330e+03
42	2.9434e-01	1.3936e-02	4.9482e-02	1.3911e-02	2.2766e+03
43	8.5797e-01	1.3205e-01	-1.9020e-01	6.1241e-02	5.6851e+02
44	3.2925e-01	1.4116e-01	1.9272e-02	5.7907e-02	1.3981e+03
45	1.2800e+00	2.2372e-01	-1.1025e-01	5.8518e-02	9.7166e+01
46	5.9649e-02	3.4389e-01	1.9581e-01	-3.6108e-01	2.3724e+02
47	3.5179e-01	9.4346e-02	6.6144e-02	3.6073e-02	1.9112e+03
48	9.4465e-02	6.3093e-01	3.1280e-01	-3.1142e-02	0.0000e+00
49	3.0501e-01	2.1639e-01	2.5080e-01	7.4925e-02	5.2063e+02
50	1.0225e+00	1.3573e-01	-1.4599e-01	1.5803e-03	6.5928e+02
51	4.1899e-02	3.0351e-01	9.6464e-02	-2.5460e-01	4.6749e+02
52	7.8042e-02	2.4895e-02	-1.2123e-01	1.5492e-01	1.9116e+03
53	1.7958e-02	1.7058e-01	8.0709e-04	-1.4272e-01	1.4281e+03
54	9.9717e-02	2.0339e-01	2.7232e-02	-8.2733e-02	1.0533e+03
55	1.3800e-01	1.2710e-01	2.3297e-03	-9.1254e-02	1.8561e+03
56	4.3696e-01	2.1522e-01	6.3049e-02	1.4701e-01	3.1499e+02
57	2.0839e-01	2.6781e-01	1.7856e-01	5.4458e-02	2.0125e+02
58	1.3806e+00	2.5084e-01	-1.8034e-01	6.9745e-02	3.5206e+00
59	3.4453e-01	5.8677e-02	1.0504e-01	1.8937e-01	2.1357e+03
60	1.5026e-02	4.1052e-01	1.2587e-01	-4.1130e-01	-2.3402e+01
61	8.5497e-01	1.9966e-01	-2.1063e-01	1.6489e-02	0.0000e+00
62	8.9227e-01	6.8795e-02	-1.6300e-01	3.2895e-03	1.2215e+03
63	8.0350e-02	3.3621e-01	1.2781e-01	-3.3846e-01	6.6772e+01
64	2.1227e-01	-2.0734e-02	1.1493e-01	1.2894e-02	0.0000e+00
65	-1.0406e-02	-1.8137e-03	-1.0587e-01	1.0945e-02	1.5616e+03
66	1.9596e-02	-1.8059e-02	2.9615e-01	1.7022e-01	5.1028e+02
67	4.3895e-02	2.6710e-01	1.0204e-01	-1.6231e-01	6.5636e+02
68	3.1198e-02	2.1037e-02	-1.0185e-01	-1.8634e-01	2.6963e+03
69	7.7427e-02	1.3175e-01	2.7770e-02	-3.2605e-02	1.8374e+03
70	5.4784e-03	2.5614e-01	-2.8070e-02	-2.4561e-01	6.6999e+02
71	4.4473e-01	-3.4421e-03	-1.5131e-01	7.2191e-02	1.6369e+03
72	6.0325e-01	9.1137e-02	-1.1023e-02	-2.6969e-02	1.3451e+03
73	2.2236e-01	-2.5703e-03	-3.8940e-02	1.9562e-01	1.9834e+03
74	8.9932e-02	5.8081e-02	8.7986e-02	-7.4914e-02	2.3946e+03
75	1.3263e+00	2.3542e-01	-2.1833e-01	3.0555e-02	1.4296e+02
76	5.4594e-01	9.8665e-02	-1.0677e-01	-3.6169e-02	1.3908e+03
77	3.2584e-01	1.2636e-01	-4.7788e-02	5.7244e-02	1.5639e+03
78	3.1490e-01	2.0244e-01	1.5008e-01	1.1771e-01	7.1542e+02
79	6.1702e-02	2.2876e-01	9.5946e-02	-1.2393e-01	8.9706e+02
80	3.1500e-01	3.3142e-02	1.0591e-01	8.0284e-02	2.4220e+03
81	4.4871e-01	1.0683e-01	-3.8470e-02	1.2784e-02	1.4716e+03
82	7.0780e-02	2.6009e-01	1.1573e-01	-2.0424e-01	6.9292e+02
83	1.3188e+00	1.5599e-01	-2.1251e-01	2.8049e-02	7.9699e+02
84	1.8729e-02	8.2106e-01	6.6355e-02	4.3679e-01	0.0000e+00
85	8.9546e-01	1.9534e-01	-1.6924e-01	4.3893e-02	8.8876e+01
86	1.0252e-02	1.6367e-01	-3.3252e-02	-6.5560e-02	1.4741e+03
87	2.2143e-02	2.9047e-01	-3.6365e-02	-1.6704e-01	6.4695e+02
88	2.2861e-02	3.4242e-01	5.8367e-02	-3.1834e-01	1.7426e+02
89	4.6638e-01	1.0548e-01	-5.1065e-02	2.4269e-02	1.4350e+03
90	6.0383e-01	1.8597e-01	-1.3103e-01	-3.1405e-03	3.7952e+02
91	3.2971e-01	1.9229e-01	1.2445e-01	9.7627e-02	7.9272e+02
92	1.3088e-01	1.0204e-01	5.8081e-02	2.4870e-02	2.1143e+03
93	3.6991e-01	1.2337e-01	6.4058e-02	5.1262e-02	1.4765e+03
94	1.0750e+00	1.9495e-01	-1.6680e-01	1.9404e-02	8.5904e+01
95	3.9581e-02	1.1401e-01	2.9920e-02	-1.4370e-02	1.9573e+03
96	8.2293e-01	1.6901e-02	-2.5405e-01	-1.0799e-02	1.2819e+03
97	2.2512e-01	2.7992e-01	2.3084e-01	-1.6629e-02	1.4037e+02
98	1.2807e-01	2.5203e-01	2.0667e-01	-1.8235e-01	6.4853e+02
99	8.1630e-01	1.5331e-01	-1.5998e-01	9.0408e-02	4.2739e+02
100	2.3778e-01	1.7149e-02	3.5340e-02	3.5790e-02	2.1606e+03
101	2.7590e-01	1.9100e-01	1.8784e-01	7.6310e-02	8.6557e+02
102	9.7011e-01	1.8016e-01	-1.8965e-01	3.5964e-02	2.5544e+02
103	1.2219e+00	1.5913e-01	-2.0864e-01	-1.0196e-02	5.6860e+02
104	6.5713e-03	2.4211e-01	8.9956e-02	-1.4766e-01	7.9542e+02
105	4.9679e-01	1.8225e-01	3.4444e-02	1.6670e-01	5.0526e+02
106	1.9828e-03	3.8981e-01	-1.0144e-01	-3.5623e-01	-7.4814e+01
107	4.2249e-01	2.0026e-01	9.7274e-02	1.1432e-01	4.9563e+02
108	2.0471e-01	1.6569e-01	9.2452e-02	-3.7106e-02	1.2851e+03
109	7.6557e-01	1.7757e-01	-1.4687e-01	7.2652e-02	3.0745e+02
110	1.2900e+00	1.7800e-01	-1.2318e-01	1.4987e-03	5.7742e+02
111	1.0600e+00	1.9842e-01	-1.5069e-01	-2.0699e-02	9.6284e+01
112	2.8659e-03	5.0311e-01	-1.1707e-01	-2.7485e-01	0.0000e+00
113	3.4656e-03	5.8367e-01	-3.8518e-02	-3.8409e-02	0.0000e+00
114	2.9437e-01	1.5818e-01	6.3645e-02	1.0503e-01	1.2146e+03
115	2.5849e+00	5.1704e-02	-9.4173e-02	-6.9366e-02	1.3501e+03
116	9.7378e-01	1.4092e-01	-1.7405e-01	-3.0686e-02	6.2876e+02
117	1.3008e+00	1.4292e-01	-1.9788e-01	4.9183e-02	8.7236e+02
118	4.9950e-01	2.1217e-01	4.2647e-02	3.5231e-02	1.5867e+02
119	2.7093e-01	2.3193e-01	1.6698e-01	6.5959e-02	4.9388e+02
120	7.8815e-01	1.5606e-01	-1.3143e-01	9.1187e-02	4.5211e+02
121	2.7862e-01	1.2389e-01	1.0331e-02	1.3962e-01	1.6510e+03
122	1.9102e-01	2.9135e-01	2.4419e-01	-3.4829e-02	6.5928e+01
123	3.1621e-01	1.5529e-01	2.3119e-02	8.8386e-02	1.2284e+03
124	1.1384e-01	2.6057e-01	1.9324e-01	-6.4991e-02	5.4577e+02
125	3.7736e-01	3.9528e-02	1.1835e-01	-1.7895e-02	1.9125e+03
126	1.3894e-01	2.8993e-01	1.8967e-01	-2.1824e-01	2.7669e+02
127	2.5325e-01	1.7801e-01	1.1267e-01	1.6414e-01	1.0536e+03
128	1.3787e-01	1.1482e-01	1.0348e-01	-9.1513e-02	1.9747e+03
129	-4.2078e-03	6.3255e-02	1.1279e-01	-2.0440e-01	2.3656e+03
130	6.8228e-01	2.0397e-01	-6.7293e-02	5.8142e-02	1.2175e+02
131	2.2107e-01	2.4507e-01	1.8740e-01	-1.6190e-02	4.3762e+02
132	2.0340e-01	3.1635e-02	8.6372e-03	-5.0290e-02	2.0357e+03
133	2.7126e-01	-4.4022e-03	2.4399e-02	-1.9750e-01	2.2646e+03
134	2.9158e-03	1.3456e-01	-5.6269e-02	-1.3107e-01	1.6374e+03
135	1.8417e-03	1.5995e-01	-2.2853e-02	-1.2677e-01	1.5276e+03
136	9.1828e-02	2.5598e-01	1.3951e-01	-7.9010e-02	6.5356e+02
137	3.4462e-01	1.6084e-01	3.6079e-02	-2.3273e-03	1.1049e+03
138	3.1655e-01	1.7295e-01	1.4012e-01	7.5600e-02	1.0797e+03
139	2.6929e-01	2.0577e-01	1.1343e-01	1.4949e-01	7.1476e+02
140	2.2729e-01	1.6714e-01	8.9087e-02	4.5312e-02	1.1726e+03
141	2.5091e-01	1.2990e-02	2.5510e-02	1.2634e-02	2.2907e+03
142	2.9260e-02	2.5580e-01	2.3581e-02	-1.4545e-01	7.4096e+02
143	1.2449e-01	1.7382e-02	3.9121e-02	6.8098e-03	2.4977e+03
144	1.5315e-01	1.7798e-01	1.0199e-01	-1.0303e-01	1.2695e+03
145	2.0321e-01	2.0183e-01	1.6423e-01	3.4094e-03	8.9343e+02
146	5.9780e-01	2.1108e-01	-6.5994e-02	9.9641e-02	1.2005e+02
147	8.1370e-03	3.7832e-01	1.2287e-01	-3.3260e-01	1.0802e+02
148	1.5110e+00	1.1489e-01	-1.6286e-01	-1.8788e-02	1.2404e+03
149	7.7328e-01	8.6058e-02	-1.4066e-01	5.9723e-02	1.0870e+03
150	4.1321e-01	7.1428e-02	-7.5720e-02	-9.3502e-02	1.8603e+03
151	3.1969e-01	1.7962e-01	2.2767e-02	1.2038e-01	9.7965e+02
152	3.5508e-02	4.0588e-01	4.6617e-02	-4.4897e-01	1.4582e+02
153	5.5948e-01	8.7555e-02	-4.6034e-02	1.4129e-03	1.4323e+03
154	6.8955e-01	9.4355e-02	-1.3127e-03	8.9401e-02	1.2428e+03
155	6.5401e-02	3.6300e-02	1.0825e-01	-5.3693e-02	2.4986e+03
156	2.3296e-01	1.3816e-01	7.7316e-02	1.2875e-03	1.4543e+03
157	3.1968e-01	2.4043e-01	2.1001e-01	6.8282e-02	1.4033e+02
158	1.3154e+00	1.6998e-01	-2.3818e-01	3.6186e-02	6.4239e+02
159	2.4733e-01	7.0756e-02	3.2208e-02	-1.8949e-02	2.1095e+03
160	6.0914e-01	6.8037e-02	-5.8923e-02	-4.1810e-02	1.5753e+03
161	1.0897e+00	1.4275e-01	-2.5712e-01	2.2516e-02	6.3467e+02
162	9.5416e-02	2.1943e-01	1.7686e-01	-4.2446e-02	8.6890e+02
163	2.6759e-01	1.2533e-01	3.5075e-02	1.4764e-01	1.6146e+03
164	6.5858e-01	9.4290e-02	-2.9323e-02	-8.3611e-03	1.2505e+03
165	2.5833e-01	2.6423e-01	1.6854e-01	7.9076e-02	1.0910e+02
166	1.5244e-01	2.9857e-01	1.8789e-01	-1.1901e-01	1.3809e+02
167	2.6193e-01	1.8591e-01	1.4965e-01	1.1458e-01	9.3085e+02
168	1.7689e-01	4.3472e-02	2.6384e-02	5.0451e-02	2.2996e+03
169	5.9429e-02	1.2614e-01	7.7883e-04	-1.1264e-01	1.8627e+03
170	1.4465e-02	5.1524e-02	1.9358e-01	-2.4029e-01	2.5581e+03
171	4.4129e-01	1.2992e-02	-1.8954e-01	1.8150e-02	1.5764e+03
172	3.5679e-01	1.4436e-01	8.9383e-02	8.5042e-02	1.3130e+03
173	5.2501e-02	7.7444e-01	2.4085e-01	4.2145e-01	0.0000e+00
174	4.6250e-01	2.0175e-01	1.1075e-01	7.1276e-02	3.7231e+02
175	4.3664e-01	3.5387e-02	-1.0169e-01	4.4184e-02	1.9731e+03
176	1.0201e+00	1.1074e-01	-2.0532e-01	2.0171e-02	8.1024e+02
177	1.8175e-03	1.4657e-01	3.5911e-02	-9.7693e-02	1.5836e+03
178	1.6922e-01	1.4820e-01	1.1704e-02	-6.3853e-02	1.5122e+03
179	5.3512e-01	1.7898e-01	-1.8898e-03	7.8823e-02	5.7363e+02
180	1.6143e-01	2.6322e-01	1.5810e-01	-6.5882e-02	4.4751e+02
181	1.3003e-01	2.2474e-01	1.2148e-01	-9.8657e-02	8.4558e+02
182	2.6593e-02	2.8218e-01	4.9000e-02	-2.7816e-01	6.6614e+02
183	4.0699e-02	2.2443e-01	1.0801e-01	-1.5661e-01	9.2704e+02
184	6.0944e-01	1.6241e-01	-7.3803e-02	4.5950e-02	6.4303e+02
185	3.0450e-01	7.6400e-02	2.2719e-02	-2.7272e-03	2.1610e+03
186	1.2805e+00	1.9493e-01	-1.8256e-01	2.3146e-04	3.3546e+02
187	3.6557e-01	1.7768e-01	1.6477e-01	-9.8768e-03	8.7495e+02
188	1.0677e-01	1.0883e-01	4.1558e-02	-6.1551e-02	2.0581e+03
189	8.1469e-01	1.3076e-01	-1.3705e-01	6.5109e-02	6.8531e+02
190	4.2968e-01	4.7055e-02	-8.4040e-02	-1.0927e-02	2.0257e+03
191	3.3871e-01	1.1524e-01	-3.5714e-02	1.5903e-01	1.5986e+03
192	2.6101e-02	7.9033e-01	1.5355e-01	2.4004e-01	0.0000e+00
193	8.9673e-03	2.2770e-02	-1.3082e-01	-8.7157e-02	2.1141e+03
194	5.4082e-02	2.1293e-01	1.3628e-02	-1.1729e-01	9.9347e+02
195	2.6202e-01	4.4050e-02	5.7498e-02	-5.1729e-02	2.2573e+03
196	-5.9343e-03	6.9791e-02	2.1922e-01	-3.3453e-01	2.0645e+03
197	1.4835e-02	1.6241e-01	5.4844e-02	-8.8102e-02	1.4805e+03
198	2.2304e-02	1.4888e-01	1.1832e-02	-7.7741e-02	1.6291e+03
199	1.8431e-01	2.2952e-02	5.4351e-02	-3.8983e-02	2.6906e+03
200	1.7210e-02	2.0002e-01	3.7930e-02	-1.9659e-01	1.0814e+03
201	2.2358e-02	7.6425e-02	-7.9179e-02	-6.6767e-02	2.2250e+03
202	1.0590e-01	7.0547e-02	5.6865e-03	2.7445e-02	2.2094e+03
203	1.8750e-01	5.2261e-02	1.4554e-01	-1.2768e-02	2.3415e+03
204	2.0656e-02	1.0423e-01	-1.0049e-01	-4.5368e-02	2.0931e+03
205	3.0302e-01	1.7467e-01	1.1321e-01	1.2807e-01	9.7283e+02
206	2.1179e-01	2.5642e-01	1.3142e-01	2.2872e-02	3.8768e+02
207	1.8644e-01	1.0201e-02	3.7357e-02	1.5639e-02	3.1251e+03
208	2.1969e-02	1.7322e-01	-1.1854e-02	-1.2781e-01	1.4053e+03
209	3.7257e-02	3.3676e-01	6.7241e-02	-2.8945e-01	4.0174e+02
210	5.6716e-01	1.0683e-01	-5.5152e-02	-1.8142e-02	1.2747e+03
211	1.6565e-01	2.7750e-01	1.8072e-01	-1.0521e-01	2.7009e+02
212	3.7907e-03	6.6736e-01	-1.1286e-01	1.0589e-04	0.0000e+00
213	2.6846e-01	2.8868e-02	3.3965e-02	-1.1014e-01	2.4636e+03
214	5.5112e-03	7.8919e-01	1.1504e-01	3.3267e-01	0.0000e+00
215	4.5409e-02	3.8151e-01	5.8619e-02	-3.9934e-01	-1.7649e+02
216	6.8483e-01	1.5300e-01	-1.3670e-01	4.3912e-02	5.9839e+02
217	5.0021e-02	1.1407e-01	-4.7584e-02	-1.3536e-01	2.0177e+03
218	3.4746e-01	1.8672e-01	1.0117e-01	7.6123e-02	8.5272e+02
219	4.4368e-01	2.1512e-02	-1.2405e-01	-9.7379e-02	1.8126e+03
220	1.9726e-01	6.8185e-02	1.1097e-01	9.5534e-03	2.2608e+03
221	2.2496e-01	1.4710e-01	1.8243e-01	9.1750e-03	1.4386e+03
222	5.4344e-02	3.0530e-01	1.5601e-01	-2.2052e-01	4.8356e+02
223	1.8042e-01	1.0218e-01	1.0424e-01	-4.9117e-02	2.0697e+03
224	2.1352e-01	1.3839e-02	-1.0034e-01	2.1543e-02	1.7672e+03
225	4.8562e-01	2.2255e-01	8.6733e-03	1.5692e-01	0.0000e+00
226	2.2117e-02	3.5653e-01	6.0550e-02	-3.5984e-01	1.8783e+02
227	1.2104e+00	2.0768e-01	-1.5694e-01	6.0475e-02	1.2466e+02
228	5.4623e-01	4.8489e-02	-9.7340e-02	7.1952e-02	1.5362e+03
229	2.0964e-01	1.5398e-01	9.9403e-02	-6.9824e-02	1.3771e+03
230	8.3419e-02	2.8685e-01	1.3564e-01	-1.8764e-01	5.3975e+02
231	3.3703e-02	7.4413e-01	1.1316e-01	2.7921e-01	0.0000e+00
232	5.5450e-02	2.0578e-01	5.0771e-02	-1.6122e-01	1.0650e+03
233	7.0350e-01	8.3091e-02	-5.4024e-02	3.1326e-02	1.3086e+03
234	1.3655e+00	1.9150e-01	-1.6794e-01	-7.5229e-02	5.3477e+02
235	1.7274e-01	2.6136e-01	2.2593e-01	-8.2906e-02	3.7868e+02
236	1.1873e-01	1.8525e-01	7.3402e-02	-1.0740e-01	1.2388e+03
237	7.3045e-01	8.6458e-02	-1.5609e-01	1.6810e-02	1.1395e+03
238	8.4928e-02	1.1156e-01	4.2375e-02	-9.4189e-02	2.0529e+03
239	6.3283e-01	1.6734e-01	-9.2813e-02	9.2485e-02	5.9084e+02
240	3.7008e-01	9.9986e-02	-2.8770e-02	5.6114e-02	1.6346e+03
241	3.0737e-01	2.4063e-01	2.1493e-01	3.8937e-02	2.2927e+02
242	8.8556e-01	1.1799e-01	-2.1157e-01	-1.1721e-02	6.9415e+02
243	8.5381e-01	1.1503e-01	-1.7291e-01	3.4037e-02	7.7983e+02
244	1.2073e-01	3.2364e-01	2.5445e-01	-2.3906e-01	0.0000e+00
245	7.9194e-02	2.2400e-01	1.0194e-01	-2.1015e-01	8.2046e+02
246	3.4819e-01	1.1278e-01	7.5123e-02	6.7600e-02	1.5930e+03
247	6.6926e-01	7.1061e-02	-7.3044e-02	2.5937e-02	1.3235e+03
248	1.3915e+00	2.5044e-01	-2.6028e-01	1.9490e-02	7.1295e+01
249	1.3370e-01	8.7217e-02	4.8261e-02	8.8799e-03	2.2045e+03
250	5.4421e-02	1.5171e-01	1.8857e-02	-8.1023e-02	1.6648e+03
251	2.5897e-01	2.0721e-01	1.3332e-01	1.2611e-01	7.0043e+02
252	1.3815e+00	2.3188e-01	-1.9863e-01	-3.1084e-02	1.7491e+02
253	3.9899e-02	4.0881e-01	5.8094e-02	-5.0916e-01	-6.4549e+00
254	2.2445e-01	3.2962e-02	2.2842e-02	-6.3863e-02	2.0751e+03
255	2.2162e-01	8.9325e-02	1.6036e-01	-3.2998e-03	2.0154e+03
256	3.7104e-01	1.9958e-01	1.4472e-01	-2.0013e-02	5.7854e+02
257	1.0146e-01	-5.7686e-04	7.6938e-02	-2.1473e-02	2.4242e+03
258	3.3794e-02	4.2048e-01	2.3497e-03	-3.6829e-01	0.0000e+00
259	3.2496e-02	1.3809e-01	6.3107e-02	-8.5098e-02	1.7482e+03
260	1.0328e-01	3.2963e-01	2.0028e-01	-2.7457e-01	7.9201e+01
261	7.2175e-02	8.8137e-02	3.0704e-02	8.3887e-03	2.0316e+03
262	2.9281e-01	1.0927e-01	1.4085e-01	1.3453e-02	1.7823e+03
263	6.2075e-03	4.6457e-01	-9.2758e-02	-4.2364e-01	0.0000e+00
264	3.2859e-02	3.3487e-01	3.4101e-02	-2.1873e-01	3.5025e+02
265	-2.1403e-04	3.0698e-01	4.2843e-02	-2.9870e-01	4.2390e+02
266	1.6838e-02	2.6726e-01	3.9179e-02	-2.4952e-01	6.1557e+02
267	1.5305e-02	1.4527e-01	2.6888e-03	6.4955e-03	1.6200e+03
268	1.5868e-01	1.6437e-02	1.6462e-01	1.5329e-01	2.2869e+03
269	3.5533e-01	2.3671e-01	1.9835e-01	1.0000e-01	1.9186e+02
270	1.9095e-02	3.0906e-01	1.5425e-02	-3.1766e-01	3.5795e+02
271	6.4874e-03	3.2787e-01	-4.7465e-02	-2.2903e-01	2.8734e+02
272	2.5130e-01	1.3158e-01	3.3763e-02	1.0774e-01	1.5637e+03
273	3.9158e-02	2.1514e-01	-2.2568e-02	-1.3295e-01	9.6224e+02
274	3.9276e-01	9.8045e-02	2.7161e-02	1.8698e-01	1.6201e+03
275	4.9740e-02	1.8293e-01	-3.1668e-02	-1.5710e-01	1.2902e+03
276	5.9839e-01	3.2224e-02	-1.0162e-01	-1.1214e-01	1.8074e+03
277	5.3658e-01	1.3044e-01	-3.4462e-02	-2.9732e-03	1.1218e+03
278	8.3320e-02	1.3409e-01	5.3713e-02	1.1798e-02	1.7894e+03
279	3.3988e-01	1.8926e-01	1.0485e-01	3.5117e-02	8.3884e+02
280	6.6766e-01	7.2076e-03	-3.2092e-01	9.9589e-02	1.3809e+03
281	3.1705e-01	2.2155e-01	2.4891e-01	1.3988e-01	4.9630e+02
282	3.4095e-01	2.0592e-01	1.6369e-01	2.7821e-02	6.1992e+02
283	6.8474e-02	2.2348e-01	5.9052e-02	-1.4416e-01	9.0634e+02
284	2.6802e-01	2.1724e-01	1.8919e-01	6.5554e-02	5.6193e+02
285	7.3995e-04	5.9157e-01	1.1819e-01	-1.8362e-01	0.0000e+00
286	1.1537e-02	4.6131e-01	-9.2083e-02	-4.0278e-01	0.0000e+00
287	1.4689e-02	2.8162e-01	8.4639e-02	-2.3540e-01	5.4951e+02
288	1.1958e+00	1.3204e-01	-2.5282e-01	2.1097e-02	8.1669e+02
289	9.1515e-03	1.0484e-01	-9.4655e-02	-3.9818e-02	2.1557e+03
290	3.3664e-01	1.7637e-01	6.5979e-02	7.1000e-02	8.9499e+02
291	7.0240e-02	1.5557e-01	4.2508e-02	-6.2548e-02	1.5533e+03
292	3.5747e-01	5.3165e-02	-2.1530e-02	1.5459e-01	2.0005e+03
293	3.9145e-03	4.3504e-01	1.1243e-01	-5.2180e-01	4.1277e+00
294	4.5272e-01	6.3801e-02	-5.8830e-02	5.5674e-03	1.8936e+03
295	1.4498e-01	1.0084e-01	5.8984e-02	-4.5897e-02	2.1423e+03
296	3.3284e-01	1.0601e-01	4.4278e-02	1.2054e-01	1.7370e+03
297	1.4016e-01	1.7377e-01	1.7401e-01	-6.9918e-02	1.2910e+03
298	3.7259e-01	1.5719e-01	-8.8712e-03	5.4367e-02	1.1393e+03
299	1.1986e-01	1.1218e-01	3.9987e-02	-5.1976e-02	2.0590e+03
300	7.6165e-02	1.5674e-01	-1.2319e-02	-3.8799e-02	1.5275e+03
301	4.1647e-01	2.2944e-01	1.3859e-01	1.1976e-01	1.3070e+02
302	7.7971e-02	2.6979e-01	5.2845e-02	-2.0359e-01	6.1006e+02
303	8.4659e-02	1.4461e-01	4.9660e-02	-3.6572e-02	1.7459e+03
304	8.9323e-01	1.8274e-01	-2.1270e-01	2.4853e-02	1.5157e+02
305	1.5241e-01	3.0272e-01	2.3437e-01	-8.4696e-02	1.1321e+02
306	7.1233e-01	1.0192e-01	-1.0096e-01	1.4093e-01	1.0966e+03
307	1.9857e+00	1.5846e-01	7.3726e-02	2.6177e-02	7.5815e+02
308	5.6837e-01	6.6646e-02	-6.7768e-02	-2.5892e-02	1.5792e+03
309	3.0338e-02	4.3718e-01	-8.1509e-02	-5.1003e-01	0.0000e+00
310	4.9436e-01	6.5088e-02	-1.0393e-01	-6.8121e-02	1.7771e+03
311	1.5672e-01	1.0453e-03	2.6090e-02	4.2635e-03	2.6789e+03
312	6.0571e-01	1.1846e-01	-4.3041e-02	4.3741e-02	1.0292e+03
313	1.5153e-03	2.6661e-01	-6.2902e-02	-1.2386e-01	6.9908e+02
314	1.7727e-02	5.5355e-01	7.5792e-02	-2.2085e-01	0.0000e+00
315	4.9416e-03	5.2038e-01	7.7269e-02	-1.4603e-01	0.0000e+00
316	1.7510e-01	2.5254e-01	2.5118e-01	-6.3936e-02	5.0922e+02
317	8.1193e-02	9.5524e-02	-2.9258e-02	-4.1513e-02	2.0773e+03
318	7.9948e-01	1.8052e-01	-1.5438e-01	8.3588e-02	1.8112e+02
319	2.5929e-01	1.5288e-01	7.4811e-03	1.0697e-01	1.3070e+03
320	3.9057e-02	1.6409e-02	2.9909e-01	-1.5469e-01	2.3597e+03
321	1.9208e-01	1.7697e-01	9.8753e-02	-5.7167e-02	1.1484e+03
322	3.7140e-02	1.5964e-01	2.6444e-02	-9.0118e-02	1.5774e+03
323	9.5577e-02	2.5642e-01	1.8618e-01	-1.3337e-01	6.8534e+02
324	5.0365e-01	-1.3278e-02	6.0644e-04	-1.3122e-01	2.5414e+03
325	8.5898e-03	7.3414e-01	1.4527e-02	1.7875e-01	0.0000e+00
326	2.4789e-02	3.1930e-01	7.1534e-03	-2.8078e-01	4.5780e+02
327	7.0976e-02	1.4218e-01	1.8199e-02	-9.8417e-02	1.7578e+03
328	5.9179e-02	1.9042e-01	3.4338e-02	-1.0528e-01	1.2094e+03
329	2.5776e-02	1.8927e-01	-1.6405e-02	-1.3294e-01	1.2346e+03
330	1.7740e-01	1.9058e-01	1.0129e-01	-9.8859e-02	1.0528e+03
331	7.6050e-02	5.8999e-02	-7.7838e-02	2.7088e-02	2.1858e+03
332	1.5938e-01	1.8147e-02	7.2296e-02	-8.0399e-02	2.2951e+03
333	9.8674e-03	1.1510e-01	9.2185e-02	-1.5398e-01	1.8958e+03
334	5.3036e-04	5.4798e-02	2.6541e-01	-6.6002e-02	2.9945e+03
335	1.5799e-02	3.3394e-01	2.3340e-03	-3.7414e-01	3.1047e+02
336	1.3332e-01	1.3306e-01	9.7869e-02	-4.5029e-02	1.8321e+03
337	1.0607e-01	8.8972e-02	9.1741e-02	-7.0043e-03	2.1607e+03
338	9.8071e-01	1.6799e-01	-2.0201e-01	1.2347e-02	3.4280e+02
339	2.9199e-03	5.1242e-01	-1.4910e-01	-1.1356e-01	0.0000e+00
340	1.0673e-01	2.4846e-01	1.8314e-01	-1.9533e-01	6.5361e+02
341	2.7621e-01	2.4209e-01	1.4159e-01	5.7239e-02	3.6398e+02
342	2.1659e+00	1.5770e-01	1.2126e-01	2.2415e-02	7.9879e+02
343	4.2378e-01	2.4733e-02	-8.9755e-02	1.9381e-02	2.1086e+03
344	6.9888e-01	1.6479e-01	-1.3765e-01	9.9191e-02	4.3969e+02
345	4.2626e-01	1.5298e-01	8.7728e-02	9.3033e-02	1.1246e+03
346	1.5275e+00	1.5219e-01	-1.5805e-01	-1.1421e-01	8.9918e+02
347	2.0763e-01	4.4390e-02	9.5460e-02	5.3252e-02	2.3283e+03
348	3.4951e-01	1.7346e-01	1.1983e-01	4.2256e-02	9.4929e+02
349	1.2776e-01	3.1409e-01	3.0305e-01	-2.7644e-01	0.0000e+00
350	2.0122e-01	1.7869e-02	1.3004e-01	-1.9179e-02	2.0540e+03
351	1.0308e-01	1.5024e-01	8.2673e-02	-1.1481e-01	1.6832e+03
352	1.8526e+00	1.6830e-01	1.0431e-01	-9.6509e-02	8.5689e+02
353	2.0878e-01	2.1162e-01	2.9105e-02	-5.2337e-03	7.3617e+02
354	2.9926e-01	2.5480e-01	2.5192e-01	1.1656e-02	8.9869e+01
355	2.9122e-01	1.9106e-01	1.8400e-01	8.8224e-02	8.3529e+02
356	3.5680e-01	3.7703e-02	3.9628e-02	2.8382e-02	2.1701e+03
357	6.6474e-02	1.7786e-01	5.1889e-02	-5.9764e-02	1.3558e+03
358	3.6646e-01	-3.1680e-03	1.2998e-02	-1.6822e-01	2.4946e+03
359	3.6623e-02	1.2138e-01	-3.0662e-02	-6.8543e-02	1.9853e+03
360	2.3040e-01	8.8139e-02	1.5371e-01	1.4105e-02	1.9654e+03
361	1.0376e-01	2.6967e-01	1.5637e-01	-1.3330e-01	5.9178e+02
362	2.6135e-02	2.3614e-01	8.1551e-02	-2.0916e-01	8.3248e+02
363	3.2233e-01	3.8453e-02	-4.0316e-02	8.1879e-04	2.2804e+03
364	1.0309e-01	1.4792e-01	2.3708e-03	2.8978e-03	1.6982e+03
365	6.3781e-01	1.6043e-01	-1.0696e-01	9.0161e-02	6.6002e+02
366	6.0541e-01	4.1263e-02	1.4398e-02	5.3985e-02	1.7192e+03
367	3.0070e-01	5.6032e-02	-1.6016e-02	9.7289e-02	2.2093e+03
368	8.8889e-02	3.2686e-01	1.8900e-01	-3.1409e-01	2.5821e+02
369	7.3600e-02	1.0485e-01	3.4835e-02	9.5844e-03	2.0322e+03
370	7.0744e-01	5.6549e-02	-1.7508e-01	-4.7244e-03	1.4127e+03
371	4.2469e-02	2.9257e-01	3.7987e-02	-1.6283e-01	5.4004e+02
372	3.4621e-01	2.4625e-01	2.3073e-01	1.1038e-01	0.0000e+00
373	3.4428e-02	2.3426e-01	6.0669e-02	-1.0134e-01	8.5721e+02
374	4.6342e-02	2.4700e-02	-1.3085e-01	-1.0254e-01	2.4904e+03
375	4.5653e-01	1.7887e-01	7.6971e-02	9.8210e-02	7.1853e+02
376	7.3240e-01	1.5289e-01	-1.5471e-01	6.5569e-02	6.0658e+02
377	2.7318e-02	9.9367e-02	-5.4123e-03	-1.6489e-01	2.1424e+03
378	1.4951e-01	2.7910e-01	4.0080e-02	-1.2228e-01	3.5093e+02
379	4.3839e-01	2.1521e-03	-8.2112e-03	-2.3099e-02	1.9469e+03
380	1.7299e-01	5.0775e-02	1.1466e-01	7.3072e-02	2.2765e+03
381	1.0427e+00	1.9498e-01	-1.9779e-01	-4.7610e-02	9.3077e+01
382	1.1283e+00	2.0266e-01	-1.1645e-01	1.0066e-03	9.6084e+01
383	5.8496e-01	4.3903e-02	-4.0763e-03	3.2773e-02	1.7144e+03
384	1.4124e-01	3.0452e-01	2.1577e-01	-7.2785e-02	1.9448e+02
385	6.7797e-02	9.4701e-02	1.8136e-02	-3.6664e-03	2.0927e+03
386	-4.9925e-03	1.5700e-02	2.2328e-02	-6.6816e-02	2.3005e+03
387	3.8455e-01	1.8403e-01	1.4019e-01	1.6472e-02	7.1911e+02
388	1.3320e-01	2.4555e-01	2.0719e-01	-1.3139e-01	6.6290e+02
389	3.9388e-01	2.2097e-01	1.2878e-01	9.5411e-02	1.7453e+02
390	1.2488e-02	9.6225e-02	-1.0960e-02	-1.1114e-01	2.0059e+03
391	3.0836e-01	1.4109e-01	-6.1878e-03	8.3248e-02	1.3966e+03
392	3.6398e-02	1.3037e-01	2.4910e-02	-9.8417e-02	1.8812e+03
393	2.2194e-01	2.3850e-01	8.8353e-02	-2.2360e-02	4.9231e+02
394	1.4107e-01	2.3450e-01	1.0531e-01	-1.9712e-01	7.4370e+02
395	6.8729e-01	1.9773e-01	-1.1684e-01	1.0156e-01	1.3063e+02
396	2.5647e-02	2.6922e-01	1.1148e-01	-2.6642e-01	6.6568e+02
397	4.8787e-02	5.3041e-02	3.2606e-02	-7.6631e-02	2.2298e+03
398	1.2544e-01	3.4387e-02	2.1821e-02	3.7065e-02	2.4229e+03
399	-2.4951e-03	4.0755e-02	1.0673e-01	-5.2416e-02	2.5723e+03
400	4.0028e-02	6.0192e-02	-5.7806e-03	5.8534e-02	2.3936e+03
401	5.6165e-01	2.1641e-03	-1.5403e-01	8.5344e-02	1.9169e+03
402	1.0005e-01	2.1852e-02	7.9611e-02	2.9334e-02	2.5817e+03
403	2.3442e-02	2.1615e-01	-4.4870e-02	-1.1794e-01	1.0451e+03
404	1.7435e-01	9.5589e-02	9.6394e-02	-1.3657e-02	2.1380e+03
405	2.3000e-01	1.8362e-01	6.0532e-02	-7.8847e-03	9.8464e+02
406	1.9403e-02	1.2342e-01	-4.2551e-02	4.3598e-02	1.8411e+03
407	4.1468e-01	-2.6091e-03	-1.7789e-01	4.4703e-02	1.7050e+03
408	1.8990e-01	9.9736e-02	1.0925e-01	-8.4732e-02	2.0768e+03
409	3.5756e-01	1.2568e-01	-1.4839e-02	5.0848e-02	1.4861e+03
410	5.2985e-01	8.9882e-02	-7.5856e-02	7.4302e-04	1.4100e+03
411	1.5980e-01	1.3287e-01	5.7148e-02	-1.5761e-02	1.7386e+03
412	2.6033e-03	5.2710e-01	7.3268e-02	-2.0895e-01	0.0000e+00
413	4.9218e-03	-2.6749e-03	1.0443e-01	1.2574e-01	1.8677e+03
414	3.1048e-01	2.0820e-01	1.6222e-01	8.6083e-02	6.3252e+02
415	1.5540e-01	2.8065e-01	2.1953e-01	-8.2949e-02	3.2952e+02
416	6.4127e-02	2.9662e-01	1.3268e-01	-1.9220e-01	5.1954e+02
417	2.1085e-01	1.0824e-01	6.6332e-02	-3.7836e-02	1.9056e+03
418	1.1577e-01	2.7318e-01	1.4860e-01	-1.2828e-01	5.3358e+02
419	5.6653e-02	1.9793e-01	6.9947e-02	-1.4237e-01	1.1630e+03
420	9.7317e-02	2.4175e-01	1.2164e-01	-5.5643e-02	7.2983e+02
421	5.8952e-03	3.1972e-01	2.5349e-02	-3.0632e-01	2.1906e+02
422	7.1223e-01	1.9941e-01	-1.1189e-01	1.1520e-01	1.2572e+02
423	1.7610e-01	2.9835e-01	1.8364e-01	-9.7651e-02	9.2438e+01
424	1.1584e-01	8.1019e-02	4.1716e-02	4.3872e-03	2.2236e+03
425	2.9109e-01	-1.6968e-03	-5.5876e-02	8.6645e-03	2.5195e+03
426	1.9011e-01	1.3050e-01	1.1611e-01	-2.3649e-02	1.6692e+03
427	5.4402e-02	2.8783e-01	8.9241e-02	-2.6070e-01	5.6730e+02
428	5.1788e-02	2.3667e-01	8.9990e-02	-8.5425e-02	7.7450e+02
429	2.7268e-01	2.5787e-01	1.9793e-01	6.7228e-02	1.1159e+02
430	7.4762e-01	-1.2188e-03	-1.4881e-01	1.5526e-01	1.6695e+03
431	9.8013e-02	8.1100e-02	-4.2172e-02	-2.5553e-02	2.2276e+03
432	2.2119e-01	2.2289e-01	2.3997e-01	-8.4896e-02	6.4516e+02
433	2.5472e-03	5.6220e-01	-2.1083e-01	-1.6786e-01	0.0000e+00
434	7.7674e-02	2.4214e-01	3.6959e-02	-1.7671e-01	7.7200e+02
435	2.9622e-01	1.3582e-01	2.0300e-02	1.8706e-01	1.4849e+03
436	7.4730e-01	3.4803e-02	-2.1304e-01	1.5678e-02	1.3485e+03
437	7.0154e-02	3.6106e-01	3.0612e-01	-2.9542e-01	3.0910e+00
438	3.4443e-01	2.1766e-01	2.7409e-01	6.9024e-02	4.5250e+02
439	2.3757e-01	2.5262e-01	1.0214e-01	5.4309e-02	1.8489e+02
440	3.9529e-01	1.1088e-01	-4.9111e-02	3.2131e-02	1.6326e+03
441	1.7364e-01	1.5009e-01	8.4429e-02	-7.3731e-02	1.4551e+03
442	5.6490e-01	4.7867e-02	-5.2835e-02	4.4909e-02	1.6146e+03
443	1.2051e-01	7.1355e-02	7.1135e-02	-4.4698e-02	2.2446e+03
444	3.9467e-01	3.8803e-02	-5.7949e-02	2.5536e-03	1.8231e+03
445	1.2381e+00	1.9258e-01	-1.1664e-01	1.2274e-01	3.4707e+02
446	8.2056e-03	6.6130e-01	1.7097e-02	1.0298e-01	0.0000e+00
447	2.8660e-03	8.6551e-02	1.1075e-01	-1.3983e-01	2.2657e+03
448	7.3818e-02	-1.7915e-02	1.0125e-01	5.7494e-02	2.6053e+03
449	1.8499e-01	2.0716e-02	6.0919e-02	1.2886e-01	2.8302e+03
450	1.5164e-02	1.5063e-01	-2.1824e-02	-1.9840e-01	1.6120e+03
451	2.2441e-02	3.1827e-01	4.3171e-02	-2.0160e-01	3.7681e+02
452	1.9643e-01	-1.3047e-02	-9.4050e-02	5.9487e-02	2.4582e+03
453	1.2079e-01	6.4616e-02	-1.0337e-03	-7.8151e-02	2.3474e+03
454	2.6989e-01	3.6321e-02	5.2401e-02	1.0984e-01	2.3667e+03
455	3.7378e-02	3.5167e-01	4.3843e-02	-3.2478e-01	1.7092e+02
456	9.1723e-02	1.9554e-01	1.1310e-01	-8.3912e-02	1.1355e+03
457	1.3489e-01	-6.1014e-04	1.3380e-01	-1.8989e-01	2.5588e+03
458	1.2360e-01	-7.1918e-04	9.0713e-02	-5.8686e-03	2.4608e+03
459	1.9385e-02	6.3308e-02	1.4208e-01	-1.5409e-02	2.2641e+03
460	4.1469e-02	2.3779e-01	6.4526e-02	-2.3456e-01	7.9856e+02
461	2.1308e-01	2.8153e-01	2.9331e-01	-1.6028e-02	5.4444e+01
462	1.1919e-02	3.8757e-01	-1.7823e-02	-3.9502e-01	6.8582e+01
463	2.0038e-02	8.7859e-02	8.6406e-02	-1.5679e-02	2.0451e+03
464	1.0042e-01	1.7109e-01	3.7949e-02	-3.8451e-02	1.4338e+03
465	9.7074e-03	3.1216e-01	-3.6277e-03	-3.1619e-01	3.6211e+02
466	3.3574e-02	3.5429e-01	1.1436e-01	-3.7508e-01	1.9254e+02
467	2.1008e-01	1.8208e-01	8.9618e-02	-8.4978e-02	1.0501e+03
468	1.1750e-02	4.4846e-02	7.7059e-02	-9.2150e-02	2.5290e+03
469	3.2563e-01	1.7203e-01	5.4166e-02	9.2280e-02	1.0511e+03
470	1.4374e-02	8.2336e-02	-2.0985e-01	-1.8130e-01	2.3750e+03
471	2.5376e-01	2.0810e-02	-1.0417e-02	5.3749e-02	2.1665e+03
472	4.3161e-02	3.4933e-01	1.7878e-01	-4.2565e-01	1.1146e+02
473	9.1642e-02	3.4072e-01	2.3778e-01	-3.4956e-01	1.1241e+02
474	9.3597e-02	1.2309e-01	5.1899e-02	-1.3041e-02	1.9221e+03
475	4.8704e-03	4.8924e-01	6.8589e-02	-2.7532e-01	0.0000e+00
476	5.8037e-01	1.6911e-02	-3.8430e-02	3.9110e-02	1.9135e+03
477	4.3475e-01	1.3757e-01	8.7821e-02	9.4413e-02	1.1872e+03
478	1.8342e-01	2.9826e-01	1.9004e-01	-4.4883e-02	-6.5863e+01
479	3.3359e-01	1.3357e-01	3.3764e-02	1.0066e-01	1.4113e+03
480	1.6832e-01	2.8525e-01	1.4901e-01	-9.8426e-02	2.2741e+02
481	3.7887e-01	2.1659e-01	1.5217e-01	3.4575e-02	3.2657e+02
482	3.8899e-01	1.5446e-01	5.7545e-02	6.0382e-03	1.0574e+03
483	1.2370e-01	5.9653e-02	8.8092e-03	-5.2983e-02	2.3674e+03
484	1.2713e-01	2.7383e-01	1.9650e-01	-1.9817e-01	4.4397e+02
485	1.7034e-01	3.0761e-02	1.3749e-01	9.3953e-02	2.2507e+03
486	2.2977e-01	2.3333e-01	1.0027e-01	5.8660e-02	5.0584e+02
487	2.8757e-01	2.5006e-01	1.9651e-01	8.5455e-02	1.5038e+02
488	3.6354e-01	2.1010e-01	1.3721e-01	5.8765e-02	4.5333e+02
489	2.1096e-01	9.0331e-02	1.9103e-01	-3.0776e-02	1.9926e+03
490	1.1029e-02	3.4601e-01	5.4775e-02	-2.6840e-01	2.0160e+02
491	5.6298e-02	2.7337e-01	3.0062e-02	-1.6526e-01	6.3924e+02
492	1.8456e-03	4.0095e-01	2.7875e-02	-2.8356e-01	1.8359e+02
493	1.3157e-01	2.6313e-01	8.4593e-02	-1.4952e-01	4.5602e+02
494	8.0491e-02	1.6665e-01	1.5450e-02	-6.7736e-02	1.4613e+03
495	4.4413e-02	3.6994e-01	6.1985e-02	-4.0802e-01	2.1238e+02
496	6.8996e-01	1.8976e-01	-9.4196e-02	7.4474e-02	1.5706e+02
497	3.6213e-02	2.4606e-01	8.5564e-02	-1.0029e-01	8.3387e+02
498	1.3067e-03	6.6183e-01	-6.4602e-02	3.1028e-01	0.0000e+00
499	2.7310e-01	1.3280e-02	6.5928e-02	-5.5116e-02	2.2306e+03
500	2.3345e-01	1.5530e-01	6.7882e-02	1.5456e-02	1.3088e+03