variables="k","x","y","vx","vy","pressure"
zone i=8064 j=1
0	2.5038e-01	1.3630e-01	1.6943e-02	1.4820e-01	1.5043e+03
1	3.7870e-01	2.1920e-01	2.1228e-01	-2.6953e-02	1.3539e+02
2	1.3721e-02	3.8750e-01	-7.1834e-02	-1.9836e-01	1.8170e+02
3	3.7921e-01	-2.9221e-03	-7.8028e-02	6.9796e-02	2.1365e+03
4	1.1935e-02	4.5244e-01	7.3723e-02	-2.5328e-01	-2.2161e+02
5	7.0731e-01	1.2678e-01	-1.1848e-01	7.1629e-02	8.8053e+02
6	3.2607e-02	4.0197e-01	-1.0295e-01	-2.9916e-01	-5.1626e+00
7	8.9760e-02	1.7489e-01	5.0485e-02	-7.1884e-02	1.3745e+03
8	-6.0830e-03	2.9478e-02	3.6232e-02	-8.4044e-04	1.9957e+03
9	2.0268e-01	2.6247e-01	8.8206e-02	-2.3758e-02	4.6343e+02
10	6.3175e-03	5.8980e-01	3.5443e-02	4.5773e-02	0.0000e+00
11	2.3033e-01	2.3837e-01	1.0396e-01	2.7359e-02	7.8440e+02
12	1.7806e-01	2.5621e-01	1.6292e-01	-6.9038e-03	7.1458e+02
13	3.3524e-01	2.2838e-01	1.4559e-01	7.7026e-02	3.0814e+02
14	7.2194e-01	6.7096e-02	-1.8116e-01	-1.8409e-02	1.0923e+03
15	2.6065e-01	2.6109e-01	1.8881e-01	3.6555e-02	1.9903e+02
16	1.0433e-01	3.1908e-01	1.0382e-01	-2.3859e-01	2.2284e+02
17	8.6109e-01	1.4289e-01	-1.7011e-01	3.8612e-02	6.6423e+02
18	1.3091e+00	2.1999e-01	-1.1089e-01	6.7544e-03	2.2788e+02
19	2.3103e-03	3.4544e-01	8.0153e-02	-1.9969e-01	2.4620e+02
20	2.8870e-01	1.9970e-01	1.3220e-01	1.9128e-01	9.3908e+02
21	9.7085e-02	3.1087e-01	1.3414e-01	-7.3108e-02	4.2003e+02
22	2.5076e-01	3.0938e-02	1.0796e-01	-4.6669e-02	2.0092e+03
23	7.3254e-02	3.5007e-01	3.9871e-02	-2.3745e-01	1.6284e+02
24	7.5693e-01	6.0004e-02	-1.7714e-01	2.1073e-03	1.2037e+03
25	-2.0370e-03	2.3347e-01	9.4815e-02	-1.3633e-01	9.2339e+02
26	8.7847e-02	4.4920e-02	3.2673e-03	-2.8026e-02	2.3358e+03
27	8.2791e-02	1.0342e-01	3.6036e-02	-2.1179e-02	1.9082e+03
28	2.7855e-01	2.8900e-04	-4.1474e-02	1.2040e-02	2.0585e+03
29	3.4566e-01	1.4228e-01	2.3050e-02	3.3057e-02	1.1682e+03
30	-3.1679e-03	1.2605e-01	3.7491e-01	-8.0298e-02	1.7473e+03
31	1.2053e-01	9.4284e-02	6.4806e-02	-5.2490e-02	1.9920e+03
32	1.3198e-01	2.7253e-01	5.3139e-02	-1.7205e-01	6.1837e+02
33	4.1401e-01	1.8675e-01	1.1426e-01	1.4624e-01	3.4736e+02
34	7.7679e-01	8.7109e-03	-1.8628e-01	-5.1222e-02	1.4242e+03
35	8.9021e-01	1.5082e-01	-1.4995e-01	-6.6191e-02	5.8699e+02
36	1.7492e-01	1.2307e-01	-2.0658e-02	-2.1539e-03	1.7976e+03
37	1.2986e+00	2.2390e-01	-9.7355e-02	6.1000e-02	9.4796e+01
38	8.2383e-01	5.1675e-02	-1.9453e-01	2.3705e-02	1.2618e+03
39	8.7101e-01	1.5640e-01	-1.3420e-01	6.9283e-02	4.7722e+02
40	2.9818e-01	1.4375e-01	-3.8143e-04	1.5937e-01	1.4306e+03
41	7.2377e-02	2.1696e-01	4.9913e-02	-2.9039e-02	1.0543e+03
42	2.9425e-01	1.5114e-02	-6.3105e-02	-6.3705e-02	2.1791e+03
43	8.6540e-01	1.2975e-01	-1.8181e-01	4.4349e-02	7.5273e+02
44	3.2894e-01	1.3861e-01	3.3454e-03	6.9807e-02	1.2881e+03
45	1.2835e+00	2.2153e-01	-6.2596e-02	4.6329e-02	1.2050e+02
46	5.3033e-02	3.5613e-01	1.3670e-01	-2.4248e-01	1.5208e+02
47	3.4957e-01	9.3305e-02	5.3951e-02	8.3296e-03	1.6047e+03
48	8.1953e-02	6.2827e-01	3.1280e-01	1.6506e-01	0.0000e+00
49	2.9636e-01	2.1334e-01	1.7878e-01	7.3744e-02	7.6001e+02
50	1.0279e+00	1.3572e-01	-1.2634e-01	-1.9773e-03	8.0865e+02
51	3.8681e-02	3.1224e-01	6.8328e-02	-1.7965e-01	5.4642e+02
52	8.1676e-02	2.4621e-02	-4.5824e-02	-1.1954e-01	2.4390e+03
53	1.8545e-02	1.7604e-01	-1.3520e-02	-1.2998e-01	1.4033e+03
54	9.8695e-02	2.0611e-01	2.2462e-02	-6.2157e-02	1.1682e+03
55	1.3841e-01	1.3132e-01	-3.5435e-02	-1.1175e-01	1.7287e+03
56	4.3496e-01	2.0928e-01	3.9126e-02	1.5201e-01	1.8424e+02
57	2.0258e-01	2.6553e-01	1.2215e-01	6.4285e-02	4.5361e+02
58	1.3868e+00	2.4769e-01	-1.2553e-01	7.0477e-02	1.5725e+02
59	3.4204e-01	5.0264e-02	4.0231e-02	2.3875e-01	2.0153e+03
60	1.0292e-02	4.2333e-01	1.1975e-01	-2.2764e-01	1.5758e+02
61	8.6353e-01	1.9856e-01	-2.1765e-01	5.8488e-03	0.0000e+00
62	8.9910e-01	6.8189e-02	-1.8060e-01	2.0592e-02	1.3016e+03
63	7.6361e-02	3.4775e-01	6.0928e-02	-2.4113e-01	1.9688e+02
64	2.0820e-01	-2.0630e-02	6.4792e-02	1.3025e-02	0.0000e+00
65	-1.0270e-02	-1.7854e-03	-1.0662e-01	1.0708e-02	1.6961e+03
66	1.1927e-02	-1.7919e-02	1.5488e-01	1.7206e-01	1.6215e+03
67	4.0320e-02	2.7250e-01	6.5101e-02	-1.0572e-01	8.1742e+02
68	3.4118e-02	2.7288e-02	-4.0215e-02	-1.1056e-01	2.3881e+03
69	7.6054e-02	1.3264e-01	4.1011e-02	-1.2419e-02	1.7737e+03
70	6.2944e-03	2.6472e-01	-1.0728e-02	-1.7885e-01	7.8550e+02
71	4.5021e-01	-3.4039e-03	-9.9308e-02	7.1231e-02	1.5377e+03
72	6.0338e-01	9.1909e-02	-9.5820e-03	-1.4605e-02	1.1420e+03
73	2.2240e-01	-2.5373e-03	3.6734e-02	1.9645e-01	2.0681e+03
74	8.7654e-02	5.9858e-02	1.9985e-02	-1.6409e-02	2.2001e+03
75	1.3340e+00	2.3381e-01	-1.5917e-01	4.5163e-02	1.2000e+02
76	5.5147e-01	9.9474e-02	-1.5104e-01	-5.2784e-03	1.0215e+03
77	3.2803e-01	1.2497e-01	-5.3539e-02	1.1131e-02	1.4576e+03
78	3.0916e-01	1.9785e-01	1.3433e-01	1.1191e-01	8.4580e+02
79	5.8351e-02	2.3291e-01	6.8221e-02	-8.6092e-02	9.5648e+02
80	3.1182e-01	3.0834e-02	2.3608e-02	2.6698e-02	2.1211e+03
81	4.5083e-01	1.0674e-01	-6.2295e-02	4.8742e-03	1.1366e+03
82	6.6109e-02	2.6646e-01	1.1058e-01	-1.1295e-01	7.8128e+02
83	1.3259e+00	1.5455e-01	-1.3622e-01	3.9020e-02	8.5714e+02
84	1.6075e-02	7.9967e-01	6.6355e-02	6.3299e-01	0.0000e+00
85	9.0224e-01	1.9424e-01	-1.7302e-01	8.1475e-03	1.2184e+02
86	1.0746e-02	1.6643e-01	5.2216e-03	-8.1847e-02	1.6204e+03
87	2.3216e-02	2.9573e-01	-1.8611e-02	-8.6160e-02	7.2892e+02
88	2.1663e-02	3.5331e-01	-3.4854e-03	-2.2332e-01	2.4015e+02
89	4.6937e-01	1.0469e-01	-9.3470e-02	7.4077e-03	1.1916e+03
90	6.0860e-01	1.8586e-01	-1.0803e-01	3.8925e-03	2.4846e+02
91	3.2562e-01	1.8886e-01	7.3749e-02	7.5286e-02	7.9468e+02
92	1.2951e-01	1.0123e-01	-4.3355e-04	6.9100e-03	1.9505e+03
93	3.6921e-01	1.2059e-01	-2.2782e-02	9.5530e-02	1.2515e+03
94	1.0814e+00	1.9409e-01	-1.5692e-01	1.9187e-02	1.2692e+02
95	3.9010e-02	1.1586e-01	1.1635e-02	-7.7490e-02	1.9093e+03
96	8.3294e-01	1.7042e-02	-2.4986e-01	4.1482e-03	1.2941e+03
97	2.1703e-01	2.8039e-01	1.7545e-01	6.7204e-03	0.0000e+00
98	1.2051e-01	2.5847e-01	1.6226e-01	-1.3924e-01	6.8423e+02
99	8.2275e-01	1.5010e-01	-1.6680e-01	6.4398e-02	6.2333e+02
100	2.3655e-01	1.4050e-02	1.7624e-02	1.0062e-01	2.0252e+03
101	2.6898e-01	1.8798e-01	1.5896e-01	7.5976e-02	1.1961e+03
102	9.7798e-01	1.7892e-01	-2.0146e-01	2.1874e-02	3.1351e+02
103	1.2294e+00	1.5935e-01	-1.6257e-01	-1.9702e-03	8.5104e+02
104	2.7534e-03	2.4655e-01	1.0853e-01	-7.4841e-02	9.3006e+02
105	4.9596e-01	1.7596e-01	2.1166e-02	1.4819e-01	3.7891e+02
106	5.8893e-03	4.0060e-01	-9.3481e-02	-1.9222e-01	8.2042e+01
107	4.1934e-01	1.9620e-01	6.2810e-02	8.9393e-02	2.9760e+02
108	2.0232e-01	1.6735e-01	2.4325e-02	-4.2609e-02	1.3816e+03
109	7.7116e-01	1.7499e-01	-1.3237e-01	5.3542e-02	3.0258e+02
110	1.2941e+00	1.7811e-01	-8.3703e-02	-5.0342e-03	5.6219e+02
111	1.0660e+00	1.9936e-01	-1.4610e-01	-2.8348e-02	1.0131e+02
112	6.8897e-03	5.1023e-01	-8.7076e-02	-9.6421e-02	0.0000e+00
113	4.3113e-03	5.8198e-01	-1.6272e-02	1.3341e-01	0.0000e+00
114	2.9217e-01	1.5434e-01	2.7884e-02	8.1354e-02	1.3847e+03
115	2.5887e+00	5.3976e-02	-9.1874e-02	-5.3074e-02	1.4715e+03
116	9.7976e-01	1.4191e-01	-1.3100e-01	-2.0528e-02	6.4007e+02
117	1.3077e+00	1.4135e-01	-1.4479e-01	2.2929e-02	9.4506e+02
118	4.9870e-01	2.1056e-01	-3.4437e-03	4.1466e-02	2.2495e+02
119	2.6583e-01	2.2901e-01	8.5788e-02	7.1167e-02	6.4729e+02
120	7.9353e-01	1.5358e-01	-1.3664e-01	3.6021e-02	6.3586e+02
121	2.7818e-01	1.1856e-01	8.7048e-03	1.2129e-01	1.6137e+03
122	1.8280e-01	2.9251e-01	1.5703e-01	-2.5618e-02	2.3316e+02
123	3.1453e-01	1.5171e-01	5.8317e-02	8.6412e-02	1.3377e+03
124	1.0784e-01	2.6254e-01	1.1347e-01	-3.8170e-02	7.2684e+02
125	3.7376e-01	4.0226e-02	4.6894e-02	1.8116e-02	1.9517e+03
126	1.3196e-01	2.9808e-01	1.6655e-01	-1.7166e-01	2.4553e+02
127	2.4965e-01	1.7127e-01	6.3678e-02	1.6933e-01	1.3420e+03
128	1.3437e-01	1.1789e-01	7.3383e-02	-5.5366e-02	1.8538e+03
129	-4.1310e-03	7.0236e-02	1.1132e-01	-9.7511e-02	2.1017e+03
130	6.8550e-01	2.0157e-01	-9.6158e-02	5.5759e-02	8.9791e+01
131	2.1438e-01	2.4544e-01	1.4422e-01	-3.3531e-03	7.1241e+02
132	2.0502e-01	3.3816e-02	-7.7143e-02	-4.1201e-02	2.0381e+03
133	2.6830e-01	-4.3396e-03	7.6421e-02	-1.9909e-01	2.1625e+03
134	4.8643e-03	1.4056e-01	-4.4246e-02	-1.5216e-01	1.6744e+03
135	1.4458e-04	1.6395e-01	1.0691e-01	-7.5305e-02	1.5471e+03
136	8.7790e-02	2.5884e-01	6.6189e-02	-6.1318e-02	8.6707e+02
137	3.4389e-01	1.6062e-01	-6.1650e-03	1.6199e-02	9.6186e+02
138	3.1162e-01	1.7023e-01	9.4158e-02	4.8044e-02	1.1114e+03
139	2.6514e-01	1.9911e-01	8.7020e-02	1.7770e-01	1.0558e+03
140	2.2438e-01	1.6524e-01	5.1619e-02	4.2275e-02	1.3617e+03
141	2.5018e-01	1.5352e-02	2.9434e-02	-9.2707e-02	2.0211e+03
142	2.8949e-02	2.6055e-01	-2.6678e-03	-8.4954e-02	9.0653e+02
143	1.2108e-01	1.5229e-02	1.1065e-01	8.6345e-02	2.2851e+03
144	1.5012e-01	1.8165e-01	5.2272e-02	-8.1696e-02	1.3032e+03
145	1.9649e-01	2.0124e-01	1.6091e-01	1.3644e-02	1.1367e+03
146	6.0072e-01	2.0722e-01	-7.9057e-02	9.4009e-02	6.0416e+01
147	3.0785e-03	3.8889e-01	1.3283e-01	-1.9792e-01	1.4627e+02
148	1.5184e+00	1.1565e-01	-2.0620e-01	-1.7285e-02	1.6894e+03
149	7.7905e-01	8.3092e-02	-1.4536e-01	8.0700e-02	1.0999e+03
150	4.1638e-01	7.4273e-02	-8.0741e-02	-4.6364e-02	1.6790e+03
151	3.1936e-01	1.7488e-01	-7.2737e-03	1.1935e-01	9.8717e+02
152	3.5081e-02	4.2009e-01	-1.3371e-02	-2.6733e-01	3.9986e+01
153	5.6216e-01	8.7076e-02	-8.1826e-02	4.1909e-02	1.2232e+03
154	6.8941e-01	9.0428e-02	-9.3020e-03	9.4182e-02	1.1283e+03
155	6.4028e-02	3.8009e-02	-3.7954e-02	2.1878e-02	2.4174e+03
156	2.2956e-01	1.3798e-01	8.3890e-02	7.3851e-03	1.5548e+03
157	3.1236e-01	2.3801e-01	1.5292e-01	5.1725e-02	2.5793e+02
158	1.3241e+00	1.6875e-01	-1.9147e-01	2.6175e-02	6.7134e+02
159	2.4789e-01	7.1653e-02	-2.2705e-02	-1.2120e-02	1.8604e+03
160	6.1144e-01	6.9223e-02	-5.1138e-02	-3.0049e-02	1.2998e+03
161	1.0997e+00	1.4185e-01	-2.4123e-01	1.6066e-02	8.1999e+02
162	8.9551e-02	2.1992e-01	1.2552e-01	2.4368e-02	1.1265e+03
163	2.6703e-01	1.1865e-01	-3.8809e-03	1.7609e-01	1.5926e+03
164	6.5927e-01	9.3787e-02	-8.6828e-03	2.9460e-02	1.0804e+03
165	2.5347e-01	2.6179e-01	8.1247e-02	4.1048e-02	2.6210e+02
166	1.4707e-01	3.0260e-01	8.5702e-02	-8.9373e-02	1.6982e+02
167	2.5770e-01	1.8066e-01	6.7956e-02	1.4414e-01	1.2005e+03
168	1.7616e-01	4.1886e-02	3.9761e-03	1.3570e-02	2.2372e+03
169	6.0112e-02	1.3013e-01	-2.0500e-02	-7.7122e-02	1.7824e+03
170	8.3217e-03	6.1273e-02	1.1590e-01	-2.1670e-01	2.1056e+03
171	4.4809e-01	1.1967e-02	-1.6740e-01	2.1858e-02	1.6925e+03
172	3.5364e-01	1.4085e-01	7.3142e-02	8.9460e-02	1.1125e+03
173	4.2867e-02	7.5367e-01	2.4085e-01	6.1765e-01	0.0000e+00
174	4.5895e-01	1.9940e-01	6.3192e-02	4.6423e-02	1.8143e+02
175	4.4054e-01	3.2965e-02	-5.9241e-02	4.3634e-02	1.5291e+03
176	1.0281e+00	1.0954e-01	-1.9829e-01	4.4575e-02	1.0526e+03
177	1.2474e-03	1.5012e-01	-1.3289e-02	-9.2921e-02	1.4565e+03
178	1.6927e-01	1.5017e-01	-1.1014e-02	-1.8377e-02	1.5860e+03
179	5.3618e-01	1.7550e-01	-4.7386e-02	8.5463e-02	3.1957e+02
180	1.5605e-01	2.6517e-01	1.1737e-01	-3.4464e-02	6.7947e+02
181	1.2589e-01	2.2783e-01	8.5513e-02	-5.8665e-02	9.8730e+02
182	2.4737e-02	2.9164e-01	4.1647e-02	-1.9065e-01	7.6827e+02
183	3.5989e-02	2.2982e-01	1.1866e-01	-1.2006e-01	9.8828e+02
184	6.1255e-01	1.6045e-01	-8.1798e-02	5.9294e-02	5.2240e+02
185	3.0381e-01	7.6857e-02	1.1233e-02	-3.3781e-03	1.9745e+03
186	1.2871e+00	1.9468e-01	-1.4632e-01	5.3158e-03	4.1532e+02
187	3.5973e-01	1.7748e-01	1.2105e-01	1.6099e-02	6.7388e+02
188	1.0606e-01	1.1117e-01	-8.6317e-03	-2.9303e-02	1.8540e+03
189	8.2092e-01	1.2768e-01	-1.6283e-01	8.4839e-02	8.4095e+02
190	4.3160e-01	4.7695e-02	-2.8853e-02	-1.5207e-02	1.8204e+03
191	3.3971e-01	1.0962e-01	-8.6042e-04	1.2651e-01	1.5913e+03
192	1.9959e-02	7.7681e-01	1.5355e-01	4.3624e-01	0.0000e+00
193	1.0959e-02	2.6252e-02	4.9836e-02	-7.8125e-02	2.1825e+03
194	5.3713e-02	2.1690e-01	5.9649e-03	-8.4196e-02	1.0923e+03
195	2.5976e-01	4.5290e-02	3.7003e-02	-4.4536e-02	2.1111e+03
196	-5.8591e-03	8.2086e-02	2.1841e-01	-2.5632e-01	1.8447e+03
197	1.4110e-02	1.6465e-01	-8.2653e-03	-3.1527e-02	1.6599e+03
198	2.3622e-02	1.5268e-01	-5.8569e-02	-9.7826e-02	1.5512e+03
199	1.8178e-01	2.4464e-02	7.7257e-02	-2.6789e-02	2.3058e+03
200	1.5996e-02	2.0682e-01	1.2147e-02	-1.3939e-01	1.1584e+03
201	2.3988e-02	7.7574e-02	-1.3357e-02	-1.3826e-02	2.0115e+03
202	1.0578e-01	6.9645e-02	1.7767e-02	1.3306e-02	2.1260e+03
203	1.8160e-01	5.3045e-02	1.3786e-01	-1.7502e-02	2.1020e+03
204	2.4211e-02	1.0420e-01	-7.5610e-02	1.1502e-02	1.8746e+03
205	2.9947e-01	1.6919e-01	6.8103e-02	1.4604e-01	1.2481e+03
206	2.0761e-01	2.5443e-01	7.7776e-02	7.3185e-02	6.4843e+02
207	1.8390e-01	1.2681e-02	8.7866e-02	-1.0431e-01	2.4124e+03
208	2.3073e-02	1.7768e-01	-3.6783e-02	-8.8457e-02	1.3852e+03
209	3.4646e-02	3.4710e-01	6.2020e-02	-2.2452e-01	4.3879e+02
210	5.6975e-01	1.0758e-01	-6.4459e-02	-2.0793e-02	9.5063e+02
211	1.5984e-01	2.8164e-01	1.0230e-01	-1.0375e-01	3.4025e+02
212	5.8693e-03	6.6338e-01	-3.2842e-02	1.9964e-01	0.0000e+00
213	2.6786e-01	3.3626e-02	-3.1158e-02	-1.0593e-01	2.1455e+03
214	9.0951e-04	7.7197e-01	1.1504e-01	5.2887e-01	0.0000e+00
215	4.3185e-02	3.9410e-01	4.4976e-02	-2.4108e-01	-6.6240e+01
216	6.9027e-01	1.5085e-01	-1.3933e-01	7.3369e-02	6.4568e+02
217	5.1618e-02	1.1872e-01	-3.7629e-02	-1.1195e-01	1.8103e+03
218	3.4407e-01	1.8330e-01	7.2139e-02	9.1152e-02	6.9511e+02
219	4.4993e-01	2.7577e-02	-2.1112e-01	-1.8457e-01	1.6679e+03
220	1.9264e-01	6.8498e-02	1.0763e-01	-2.1750e-02	2.1042e+03
221	2.1873e-01	1.4550e-01	1.2024e-01	5.3236e-02	1.4338e+03
222	4.8638e-02	3.1194e-01	1.2692e-01	-1.1093e-01	5.6132e+02
223	1.7671e-01	1.0488e-01	6.2695e-02	-7.1701e-02	1.9165e+03
224	2.1816e-01	1.4682e-02	-1.6365e-01	-8.3674e-02	1.8636e+03
225	4.8575e-01	2.1577e-01	-1.5095e-02	1.7467e-01	3.6712e+01
226	2.0503e-02	3.6860e-01	2.1182e-02	-2.3715e-01	2.0294e+02
227	1.2164e+00	2.0545e-01	-1.4614e-01	4.4330e-02	1.5392e+02
228	5.5037e-01	4.5389e-02	-1.0802e-01	5.6344e-02	1.4311e+03
229	2.0540e-01	1.5615e-01	1.0608e-01	-4.7995e-02	1.4692e+03
230	7.8422e-02	2.9353e-01	1.0675e-01	-1.3576e-01	6.1258e+02
231	2.9177e-02	7.2905e-01	1.1316e-01	4.7541e-01	0.0000e+00
232	5.3918e-02	2.1184e-01	2.5578e-02	-1.2718e-01	1.1483e+03
233	7.0506e-01	8.2645e-02	-4.2367e-02	-3.9293e-03	1.0759e+03
234	1.3711e+00	1.9410e-01	-1.1378e-01	-5.2920e-02	5.0026e+02
235	1.6551e-01	2.6452e-01	1.2882e-01	-7.3019e-02	5.7572e+02
236	1.1639e-01	1.8837e-01	5.5343e-02	-6.6257e-02	1.3648e+03
237	7.3680e-01	8.5910e-02	-1.6246e-01	3.8631e-03	1.0199e+03
238	8.2887e-02	1.1491e-01	6.0682e-02	-7.7664e-02	1.8007e+03
239	6.3642e-01	1.6336e-01	-8.8561e-02	1.1181e-01	4.7562e+02
240	3.7115e-01	9.7147e-02	-3.2635e-02	8.7213e-02	1.5508e+03
241	2.9965e-01	2.3912e-01	1.7073e-01	3.5850e-02	3.0186e+02
242	8.9444e-01	1.1866e-01	-2.2539e-01	-1.5297e-02	8.7655e+02
243	8.6011e-01	1.1399e-01	-1.4576e-01	2.1526e-02	9.5171e+02
244	1.1194e-01	3.3132e-01	1.8394e-01	-1.4972e-01	0.0000e+00
245	7.6152e-02	2.3152e-01	5.5151e-02	-1.5481e-01	1.0046e+03
246	3.4554e-01	1.1097e-01	6.3882e-02	2.4942e-02	1.5970e+03
247	6.7267e-01	7.0530e-02	-1.0800e-01	-1.6532e-03	1.2776e+03
248	1.4018e+00	2.4978e-01	-2.4879e-01	3.5137e-03	1.4456e+02
249	1.3409e-01	8.6493e-02	-3.4211e-02	2.0602e-02	2.0287e+03
250	5.3931e-02	1.5393e-01	-1.2794e-03	-2.2164e-02	1.5378e+03
251	2.5485e-01	2.0125e-01	7.2585e-02	1.6049e-01	1.0205e+03
252	1.3890e+00	2.3294e-01	-1.7167e-01	-2.6496e-02	1.4693e+02
253	3.7235e-02	4.2562e-01	7.2712e-02	-3.2988e-01	0.0000e+00
254	2.2367e-01	3.5116e-02	3.1812e-02	-3.5621e-02	2.0614e+03
255	2.1488e-01	9.0132e-02	1.7056e-01	-2.2989e-02	1.9750e+03
256	3.6575e-01	1.9980e-01	1.1849e-01	1.2139e-02	4.3108e+02
257	9.9841e-02	-5.4085e-04	2.5248e-02	-2.1398e-02	2.7161e+03
258	3.4081e-02	4.3104e-01	-1.2093e-02	-1.5751e-01	0.0000e+00
259	2.9608e-02	1.4128e-01	7.4317e-02	-6.1016e-02	1.6780e+03
260	9.6547e-02	3.3992e-01	1.4150e-01	-2.3111e-01	7.6543e+01
261	7.1322e-02	8.8047e-02	2.6558e-02	-5.3919e-03	2.0021e+03
262	2.8735e-01	1.0719e-01	1.1525e-01	6.9853e-02	1.6978e+03
263	9.8993e-03	4.7735e-01	-8.9991e-02	-2.1674e-01	3.8933e+00
264	3.0947e-02	3.4236e-01	5.6284e-02	-1.4190e-01	4.4745e+02
265	-2.1250e-04	3.1678e-01	4.2950e-02	-1.8919e-01	4.5869e+02
266	1.5234e-02	2.7587e-01	3.5044e-02	-1.6594e-01	7.3677e+02
267	1.4138e-02	1.4426e-01	4.9896e-02	4.5058e-02	1.5778e+03
268	1.5369e-01	1.0894e-02	4.6330e-02	1.0745e-01	2.4130e+03
269	3.4802e-01	2.3324e-01	1.6783e-01	7.7107e-02	1.0009e+02
270	1.8332e-02	3.1957e-01	2.5482e-02	-1.9888e-01	5.7173e+02
271	8.1841e-03	3.3462e-01	-4.8602e-02	-1.1586e-01	4.3391e+02
272	2.5093e-01	1.2887e-01	-1.8122e-02	2.4428e-02	1.6320e+03
273	4.0845e-02	2.1936e-01	-6.6309e-02	-8.8111e-02	1.1639e+03
274	3.9208e-01	9.1791e-02	-2.7433e-03	1.3814e-01	1.5318e+03
275	5.1168e-02	1.8852e-01	-2.8201e-02	-1.1463e-01	1.2892e+03
276	6.0169e-01	3.6363e-02	-6.1495e-02	-1.0876e-01	1.6113e+03
277	5.3812e-01	1.2903e-01	-3.6386e-02	6.2917e-02	7.6243e+02
278	8.1904e-02	1.3350e-01	1.7270e-02	1.4367e-02	1.7359e+03
279	3.3593e-01	1.8788e-01	8.7154e-02	3.5002e-02	7.7376e+02
280	6.8008e-01	3.5926e-03	-2.7305e-01	6.6895e-02	1.0226e+03
281	3.0814e-01	2.1549e-01	1.9396e-01	1.5584e-01	6.8237e+02
282	3.3486e-01	2.0474e-01	1.3745e-01	2.9141e-02	5.9733e+02
283	6.6536e-02	2.2841e-01	3.7373e-02	-9.8259e-02	1.0307e+03
284	2.6187e-01	2.1444e-01	1.1684e-01	7.6992e-02	9.6189e+02
285	3.1066e-03	5.9571e-01	-5.7758e-02	-1.8188e-02	0.0000e+00
286	1.5072e-02	4.7318e-01	-8.3479e-02	-1.8981e-01	4.2772e+01
287	1.2067e-02	2.8982e-01	5.0399e-02	-1.7929e-01	6.6442e+02
288	1.2056e+00	1.3071e-01	-2.3735e-01	4.6211e-02	1.1340e+03
289	1.4075e-02	1.0564e-01	-1.3047e-01	-2.9719e-02	1.8853e+03
290	3.3472e-01	1.7360e-01	3.0201e-02	5.6559e-02	8.8763e+02
291	6.8968e-02	1.5725e-01	2.3049e-02	-1.4525e-02	1.5404e+03
292	3.5813e-01	4.7519e-02	-1.3355e-02	1.4362e-01	1.9918e+03
293	7.5070e-04	4.5236e-01	-1.1952e-01	-3.3976e-01	1.7972e+02
294	4.5576e-01	6.3681e-02	-1.0876e-01	3.1129e-03	1.6288e+03
295	1.4273e-01	1.0186e-01	5.7930e-02	-5.4960e-04	1.9279e+03
296	3.3210e-01	1.0170e-01	-2.2828e-02	1.0023e-01	1.6472e+03
297	1.3451e-01	1.7583e-01	1.2103e-01	-3.1311e-02	1.4308e+03
298	3.7391e-01	1.5549e-01	-4.7129e-02	3.1907e-02	8.2383e+02
299	1.1926e-01	1.1311e-01	-8.0474e-03	9.9051e-03	1.8745e+03
300	7.6380e-02	1.5772e-01	-9.3982e-03	-4.4029e-03	1.5987e+03
301	4.1137e-01	2.2510e-01	1.1931e-01	9.6489e-02	5.5288e+01
302	7.6434e-02	2.7715e-01	2.0725e-02	-1.6338e-01	7.0426e+02
303	8.3385e-02	1.4525e-01	2.2208e-02	-2.4970e-03	1.6107e+03
304	9.0166e-01	1.8198e-01	-2.0624e-01	1.2226e-02	2.4046e+02
305	1.4521e-01	3.0571e-01	1.3181e-01	-6.4293e-02	8.6456e+01
306	7.1615e-01	9.7665e-02	-1.0147e-01	6.5603e-02	9.6602e+02
307	1.9824e+00	1.5757e-01	9.4377e-02	2.1781e-02	8.7417e+02
308	5.7131e-01	6.7881e-02	-9.2295e-02	-4.3443e-02	1.4670e+03
309	3.3622e-02	4.5395e-01	-8.0091e-02	-3.2505e-01	0.0000e+00
310	4.9824e-01	6.6729e-02	-6.5689e-02	-4.6871e-02	1.4695e+03
311	1.5759e-01	9.4447e-04	-6.0640e-02	2.5600e-02	2.3608e+03
312	6.0823e-01	1.1680e-01	-8.3633e-02	3.7362e-02	8.2041e+02
313	3.9398e-03	2.6971e-01	-5.4606e-02	-3.3123e-02	7.7010e+02
314	1.4110e-02	5.5859e-01	1.1852e-01	-3.0462e-02	0.0000e+00
315	3.6861e-04	5.2330e-01	1.4215e-01	-3.7390e-03	0.0000e+00
316	1.6598e-01	2.5438e-01	1.9447e-01	-2.9423e-02	6.8304e+02
317	8.2519e-02	9.6385e-02	-2.4693e-02	3.5306e-03	2.0170e+03
318	8.0580e-01	1.7796e-01	-1.6085e-01	4.6979e-02	3.8289e+02
319	2.5974e-01	1.4822e-01	-4.4991e-02	1.2812e-01	1.5638e+03
320	3.3040e-02	1.9423e-02	1.5251e-01	-1.5081e-02	2.0087e+03
321	1.8870e-01	1.7844e-01	6.0491e-02	-3.5854e-02	1.3075e+03
322	3.5243e-02	1.6314e-01	7.6599e-02	-8.4074e-02	1.5214e+03
323	8.9463e-02	2.6149e-01	1.1914e-01	-1.2487e-01	8.3267e+02
324	5.0507e-01	-1.3141e-02	-1.0755e-01	-1.3244e-01	2.2895e+03
325	8.0087e-03	7.2308e-01	1.4527e-02	3.7495e-01	0.0000e+00
326	2.5034e-02	3.2934e-01	-2.2626e-02	-2.2382e-01	4.9394e+02
327	7.0658e-02	1.4574e-01	-5.7714e-03	-7.8619e-02	1.6201e+03
328	5.8462e-02	1.9323e-01	-5.3473e-03	-5.5106e-02	1.2734e+03
329	2.5717e-02	1.9380e-01	2.6785e-02	-9.7496e-02	1.3330e+03
330	1.7459e-01	1.9333e-01	4.5159e-02	-4.5537e-02	1.2109e+03
331	7.7821e-02	5.7682e-02	8.8631e-03	3.6553e-02	2.1106e+03
332	1.5717e-01	2.0591e-02	7.0199e-03	-6.0389e-02	2.2321e+03
333	7.0484e-03	1.2085e-01	3.7552e-02	-1.0047e-01	1.7883e+03
334	6.3232e-03	5.4640e-02	-1.2264e-01	7.1048e-03	2.2677e+03
335	1.6608e-02	3.4664e-01	-4.0932e-02	-2.4138e-01	4.1257e+02
336	1.2972e-01	1.3433e-01	8.4090e-02	-3.1333e-02	1.6614e+03
337	1.0252e-01	8.9026e-02	9.2554e-02	7.6225e-03	2.0516e+03
338	9.8913e-01	1.6787e-01	-2.1807e-01	-6.3593e-03	4.2329e+02
339	7.8955e-03	5.1411e-01	-9.7425e-02	1.8427e-02	0.0000e+00
340	1.0035e-01	2.5483e-01	1.3121e-01	-1.2011e-01	8.1237e+02
341	2.7151e-01	2.3924e-01	1.0433e-01	8.5116e-02	5.4028e+02
342	2.1610e+00	1.5757e-01	1.2112e-01	8.7961e-04	9.5561e+02
343	4.2986e-01	2.5526e-02	-1.6234e-01	-6.9445e-02	1.7014e+03
344	7.0470e-01	1.6129e-01	-1.5864e-01	8.0097e-02	5.0854e+02
345	4.2311e-01	1.4919e-01	7.0879e-02	8.8791e-02	7.2282e+02
346	1.5335e+00	1.5639e-01	-1.4439e-01	-9.5847e-02	1.2993e+03
347	2.0464e-01	4.2440e-02	6.1115e-02	3.5680e-02	2.1535e+03
348	3.4583e-01	1.7181e-01	6.1618e-02	4.0785e-02	7.8558e+02
349	1.1662e-01	3.2487e-01	2.3940e-01	-2.6350e-01	0.0000e+00
350	1.9955e-01	1.7351e-02	-1.2404e-02	2.4389e-02	2.4486e+03
351	9.9899e-02	1.5384e-01	5.7759e-02	-6.4787e-02	1.5675e+03
352	1.8495e+00	1.7266e-01	4.1382e-02	-1.2195e-01	7.9621e+02
353	2.0849e-01	2.1186e-01	-1.1046e-02	-6.3293e-03	1.1270e+03
354	2.9022e-01	2.5466e-01	2.0039e-01	-8.8790e-03	0.0000e+00
355	2.8465e-01	1.8823e-01	1.3680e-01	5.3831e-02	1.0718e+03
356	3.5639e-01	3.5679e-02	-3.4137e-02	4.8086e-02	2.1328e+03
357	6.5018e-02	1.7944e-01	2.2720e-02	-1.6920e-02	1.3868e+03
358	3.6369e-01	-3.1172e-03	2.7050e-02	-1.6865e-01	2.5485e+03
359	3.7701e-02	1.2295e-01	-2.5535e-02	-2.9161e-02	1.7596e+03
360	2.2578e-01	8.7521e-02	8.8325e-02	2.9948e-02	1.9325e+03
361	9.8010e-02	2.7352e-01	1.2757e-01	-5.1828e-02	7.3646e+02
362	2.3098e-02	2.4330e-01	5.9994e-02	-1.4638e-01	8.9847e+02
363	3.2374e-01	3.6870e-02	-2.3612e-02	1.0469e-01	2.1746e+03
364	1.0289e-01	1.4734e-01	5.5642e-03	9.0473e-03	1.6081e+03
365	6.4201e-01	1.5670e-01	-1.0253e-01	9.0316e-02	5.3717e+02
366	6.0566e-01	4.0053e-02	-2.3458e-02	-6.2864e-03	1.5111e+03
367	3.0082e-01	5.3457e-02	4.0667e-03	5.9479e-02	2.1213e+03
368	8.3253e-02	3.3769e-01	9.0448e-02	-2.1914e-01	1.2536e+02
369	7.2817e-02	1.0414e-01	1.3622e-02	3.3183e-02	1.8960e+03
370	7.1432e-01	5.7869e-02	-1.6302e-01	-4.6194e-02	1.2992e+03
371	4.2142e-02	2.9763e-01	-1.7234e-02	-8.7841e-02	6.7223e+02
372	3.3761e-01	2.4172e-01	1.9481e-01	1.1410e-01	6.3958e+01
373	3.1576e-02	2.3668e-01	7.9090e-02	-3.3877e-02	8.8362e+02
374	4.9684e-02	2.8821e-02	-7.4285e-02	-8.4687e-02	2.3117e+03
375	4.5424e-01	1.7576e-01	4.0972e-02	5.9365e-02	4.3042e+02
376	7.3866e-01	1.5028e-01	-1.6421e-01	5.8952e-02	5.9377e+02
377	2.6416e-02	1.0460e-01	3.4149e-02	-1.1165e-01	1.9019e+03
378	1.4866e-01	2.8243e-01	4.7376e-03	-5.3498e-02	3.8498e+02
379	4.3719e-01	2.0387e-03	3.3195e-02	-7.0313e-02	1.3278e+03
380	1.7031e-01	4.7577e-02	2.8581e-02	8.0736e-02	2.1285e+03
381	1.0502e+00	1.9752e-01	-1.8037e-01	-7.6075e-02	6.0416e+01
382	1.1325e+00	2.0269e-01	-9.2003e-02	-6.3065e-03	8.8724e+01
383	5.8569e-01	4.3580e-02	-2.7412e-02	-1.5456e-02	1.6469e+03
384	1.3390e-01	3.0694e-01	1.4182e-01	-5.1025e-02	2.2122e+02
385	6.6925e-02	9.4442e-02	1.4768e-02	1.4099e-02	1.9611e+03
386	-4.9749e-03	1.8519e-02	2.1010e-02	-4.8669e-02	2.0116e+03
387	3.7956e-01	1.8329e-01	1.0471e-01	1.9430e-02	4.8594e+02
388	1.2546e-01	2.5059e-01	1.8081e-01	-1.2583e-01	8.1595e+02
389	3.8904e-01	2.1735e-01	1.1383e-01	8.5509e-02	2.7563e+02
390	1.3111e-02	1.0236e-01	-9.7963e-03	-1.5315e-01	1.9575e+03
391	3.0914e-01	1.3884e-01	-3.8886e-02	3.7639e-02	1.4478e+03
392	3.5032e-02	1.3261e-01	3.8606e-02	-2.0352e-02	1.7609e+03
393	2.1958e-01	2.3865e-01	3.3940e-02	1.5154e-02	7.7574e+02
394	1.3797e-01	2.4149e-01	5.2600e-02	-1.4781e-01	8.8071e+02
395	6.9209e-01	1.9347e-01	-1.2512e-01	1.0422e-01	1.2059e+02
396	2.1628e-02	2.7857e-01	8.3730e-02	-1.9240e-01	7.7315e+02
397	4.5961e-02	5.7271e-02	7.2115e-02	-1.0876e-01	2.2001e+03
398	1.2678e-01	3.3889e-02	-9.1158e-02	-8.2313e-03	2.2646e+03
399	-2.4533e-03	4.2291e-02	1.0682e-01	-2.9941e-03	2.1042e+03
400	3.9728e-02	5.8103e-02	7.1439e-03	2.7415e-02	2.1772e+03
401	5.6855e-01	2.3254e-03	-2.3848e-01	2.3173e-02	1.8647e+03
402	9.5764e-02	2.3284e-02	1.0112e-01	-3.8922e-02	2.3226e+03
403	2.5341e-02	2.1953e-01	-4.7772e-02	-4.3905e-02	1.1015e+03
404	1.7071e-01	9.6319e-02	7.6593e-02	-9.3695e-03	2.0220e+03
405	2.2861e-01	1.8356e-01	1.7451e-02	1.7884e-02	1.2900e+03
406	2.1212e-02	1.2241e-01	-5.5446e-02	2.6977e-02	1.7998e+03
407	4.1895e-01	-2.5579e-03	-7.5814e-02	4.4202e-02	1.7089e+03
408	1.8674e-01	1.0199e-01	6.3246e-02	-3.9914e-02	1.9020e+03
409	3.5676e-01	1.2276e-01	4.6654e-02	9.0889e-02	1.2700e+03
410	5.3287e-01	9.1110e-02	-8.3527e-02	-5.0355e-02	1.2329e+03
411	1.5881e-01	1.3285e-01	-8.1415e-03	2.0557e-02	1.7279e+03
412	1.3169e-03	5.3042e-01	-1.0104e-01	5.1882e-02	0.0000e+00
413	4.7373e-03	-2.6227e-03	-5.2688e-02	1.2513e-01	1.9697e+03
414	3.0434e-01	2.0467e-01	1.3952e-01	9.6821e-02	8.2199e+02
415	1.4728e-01	2.8339e-01	1.8531e-01	-4.7694e-02	5.0694e+02
416	6.0082e-02	3.0313e-01	7.3346e-02	-1.3618e-01	5.8212e+02
417	2.0839e-01	1.0914e-01	4.9654e-02	-5.3957e-03	1.7602e+03
418	1.1170e-01	2.7717e-01	6.0493e-02	-6.4729e-02	5.8936e+02
419	5.4204e-02	2.0244e-01	5.3589e-02	-9.5228e-02	1.2522e+03
420	9.3111e-02	2.4268e-01	1.0115e-01	1.1976e-02	8.9336e+02
421	4.8805e-03	3.3046e-01	2.0493e-02	-2.2539e-01	3.7411e+02
422	7.1737e-01	1.9522e-01	-1.4502e-01	9.0226e-02	1.2197e+02
423	1.7029e-01	3.0179e-01	1.1174e-01	-5.1301e-02	0.0000e+00
424	1.1490e-01	8.0100e-02	3.0751e-03	1.4622e-02	2.0786e+03
425	2.9165e-01	-1.6633e-03	5.9058e-02	8.5139e-03	2.1972e+03
426	1.8587e-01	1.3114e-01	8.8022e-02	-6.6344e-03	1.6725e+03
427	5.0945e-02	2.9687e-01	8.0755e-02	-1.8168e-01	6.1438e+02
428	4.8745e-02	2.3899e-01	5.8550e-02	-2.8241e-02	9.6705e+02
429	2.6601e-01	2.5575e-01	1.3128e-01	3.6040e-02	2.8290e+02
430	7.5268e-01	-1.1910e-03	-1.0800e-01	1.5482e-01	1.2457e+03
431	1.0017e-01	8.1498e-02	-5.1003e-02	1.9681e-02	2.0534e+03
432	2.1269e-01	2.2558e-01	1.7024e-01	-5.1573e-02	8.6057e+02
433	8.5893e-03	5.6381e-01	-8.8592e-02	8.8617e-02	0.0000e+00
434	7.6519e-02	2.4809e-01	1.3024e-02	-1.1710e-01	8.7348e+02
435	2.9575e-01	1.2800e-01	-2.3310e-03	1.9462e-01	1.5039e+03
436	7.5561e-01	3.4125e-02	-2.0317e-01	2.8803e-02	1.2350e+03
437	5.8918e-02	3.7080e-01	2.5355e-01	-1.9522e-01	1.1419e+02
438	3.3525e-01	2.1490e-01	1.8397e-01	6.6196e-02	4.5846e+02
439	2.3493e-01	2.5072e-01	3.0847e-02	4.0420e-02	4.5858e+02
440	3.9716e-01	1.0774e-01	-5.8097e-02	1.1262e-01	1.3010e+03
441	1.7082e-01	1.5318e-01	5.6303e-02	-6.7291e-02	1.5392e+03
442	5.6812e-01	4.5507e-02	-1.0031e-01	5.7704e-02	1.5857e+03
443	1.1838e-01	7.3925e-02	2.5836e-02	-6.1668e-02	2.1461e+03
444	3.9757e-01	3.9614e-02	-8.1030e-02	-3.0699e-02	1.7363e+03
445	1.2421e+00	1.8778e-01	-8.6407e-02	1.0810e-01	4.9177e+02
446	6.7090e-03	6.5315e-01	5.0415e-02	2.9314e-01	0.0000e+00
447	3.5476e-03	9.0461e-02	-1.4485e-01	-6.7452e-02	1.8463e+03
448	6.5424e-02	-1.7768e-02	7.1404e-02	5.7947e-02	2.9023e+03
449	1.8125e-01	1.5957e-02	1.2796e-01	8.7494e-02	2.3776e+03
450	1.6616e-02	1.5688e-01	-3.9248e-02	-9.2369e-02	1.6696e+03
451	2.0710e-02	3.2498e-01	4.0064e-02	-1.3224e-01	4.5794e+02
452	1.9485e-01	-1.2894e-02	1.0434e-01	5.9282e-02	2.9498e+03
453	1.2114e-01	6.6694e-02	-2.6959e-02	-8.1415e-03	2.1537e+03
454	2.6847e-01	3.2096e-02	-4.3433e-03	1.1583e-01	2.0482e+03
455	3.5800e-02	3.6169e-01	3.1418e-02	-1.6834e-01	3.1018e+02
456	8.8454e-02	1.9822e-01	6.1716e-02	-5.2655e-02	1.2729e+03
457	1.3039e-01	-5.8547e-04	3.2051e-02	-1.8890e-01	2.6032e+03
458	1.1992e-01	-6.9016e-04	1.8538e-01	-5.2445e-03	2.6254e+03
459	1.2824e-02	6.5223e-02	1.5285e-01	-4.4089e-02	2.1293e+03
460	3.9432e-02	2.4636e-01	5.0340e-02	-1.9996e-01	9.5969e+02
461	2.0238e-01	2.8148e-01	2.3557e-01	8.1028e-03	2.2155e+02
462	1.2886e-02	4.0070e-01	-3.9658e-02	-2.7159e-01	1.6964e+02
463	1.7203e-02	8.7747e-02	1.2191e-01	3.5661e-02	1.9422e+03
464	9.8776e-02	1.7213e-01	4.8065e-02	-2.1389e-02	1.4296e+03
465	1.0098e-02	3.2353e-01	-1.3720e-02	-2.3432e-01	4.3998e+02
466	2.8495e-02	3.6637e-01	1.3311e-01	-2.2835e-01	1.4560e+02
467	2.0729e-01	1.8455e-01	5.5739e-02	-3.4790e-02	1.2868e+03
468	9.6197e-03	4.7897e-02	1.8222e-02	-1.0842e-01	2.2879e+03
469	3.2431e-01	1.6806e-01	1.9213e-02	1.0235e-01	1.0054e+03
470	2.1502e-02	8.5816e-02	-1.1620e-01	-3.5979e-02	2.0007e+03
471	2.5399e-01	1.6879e-02	8.4154e-03	1.3478e-01	1.9879e+03
472	3.7112e-02	3.6369e-01	1.2690e-01	-2.8309e-01	2.5248e+02
473	8.4986e-02	3.5295e-01	1.0113e-01	-2.5961e-01	8.3383e+01
474	9.2167e-02	1.2327e-01	1.8665e-02	-2.3342e-03	1.8025e+03
475	1.6383e-03	4.9678e-01	8.6336e-02	-9.1836e-02	0.0000e+00
476	5.7866e-01	1.4293e-02	6.9851e-02	8.2493e-02	1.4970e+03
477	4.3178e-01	1.3321e-01	6.2169e-02	1.1644e-01	8.5338e+02
478	1.7690e-01	2.9794e-01	1.2344e-01	3.8882e-02	1.9325e+02
479	3.3236e-01	1.2962e-01	2.5971e-02	9.8009e-02	1.4140e+03
480	1.6311e-01	2.8871e-01	1.0179e-01	-6.6622e-02	1.5930e+02
481	3.7346e-01	2.1513e-01	1.1528e-01	3.9682e-02	1.8624e+02
482	3.8729e-01	1.5408e-01	2.2248e-02	4.8754e-03	7.9502e+02
483	1.2290e-01	6.0019e-02	2.2806e-02	6.7442e-03	2.1310e+03
484	1.1957e-01	2.8120e-01	1.7723e-01	-1.7546e-01	5.3691e+02
485	1.6403e-01	2.7085e-02	1.9759e-01	1.0089e-01	2.1995e+03
486	2.2632e-01	2.3053e-01	7.2400e-02	7.4144e-02	8.5638e+02
487	2.8095e-01	2.4674e-01	1.3231e-01	7.2610e-02	3.5832e+02
488	3.5818e-01	2.0848e-01	1.3083e-01	2.0218e-02	3.8018e+02
489	2.0529e-01	9.1002e-02	1.0298e-01	-1.3889e-03	1.9848e+03
490	7.4377e-03	3.5459e-01	1.2601e-01	-1.5835e-01	3.3449e+02
491	5.5833e-02	2.7895e-01	2.0649e-03	-1.1505e-01	7.3472e+02
492	3.6598e-04	4.0910e-01	4.8766e-02	-1.2615e-01	2.3757e+01
493	1.2852e-01	2.6771e-01	6.8830e-02	-7.1713e-02	7.3352e+02
494	7.9668e-02	1.6914e-01	1.9677e-02	-6.0118e-02	1.4457e+03
495	4.3759e-02	3.8356e-01	-2.4464e-02	-2.6927e-01	2.3212e+02
496	6.9407e-01	1.8724e-01	-1.1399e-01	5.6321e-02	2.4028e+02
497	3.3673e-02	2.4875e-01	4.8231e-02	-2.8481e-02	9.1046e+02
498	7.0631e-04	6.4603e-01	-9.9884e-02	4.6502e-01	0.0000e+00
499	2.7133e-01	1.8471e-02	4.7896e-02	-1.8456e-01	2.1042e+03