variables="k","x","y","vx","vy","pressure"
zone i=8064 j=1
0	3.8939e-01	1.6294e-01	8.9209e-04	-8.8969e-02	8.8285e+02
1	6.0576e-01	1.9961e-01	1.2753e-01	-1.9730e-01	9.8330e+02
2	3.0385e-02	2.0915e-01	7.6357e-02	5.3013e-01	-1.7606e+02
3	4.0588e-01	-4.1995e-03	-1.4709e-01	6.9807e-02	1.8098e+03
4	3.9923e-02	2.2474e-01	4.2155e-01	1.3354e-01	0.0000e+00
5	7.4746e-01	2.1813e-01	1.4536e-01	-4.0274e-02	1.0713e+03
6	1.0397e-01	1.7105e-01	-2.4186e-01	-7.6025e-02	5.3504e+02
7	1.7787e-01	8.7473e-02	-7.6593e-02	-3.0570e-02	1.1905e+03
8	-7.8926e-03	5.2696e-03	3.6370e-02	-1.2790e-01	1.2731e+03
9	3.5427e-01	2.3760e-01	-1.2194e-01	-5.2635e-02	1.5110e+02
10	3.5895e-02	1.2091e-01	1.9603e-01	2.0561e-01	9.7990e+02
11	4.5804e-01	2.4588e-01	7.3088e-02	-3.9331e-02	2.9144e+02
12	3.6863e-01	2.2369e-01	-9.9660e-02	-1.8437e-01	2.7421e+02
13	5.9485e-01	2.5432e-01	1.5253e-01	-1.9187e-01	3.7619e+02
14	7.0885e-01	7.9759e-02	7.5034e-02	-5.5459e-02	2.3053e+03
15	5.8948e-01	2.9163e-01	2.0716e-01	-1.2890e-01	5.3612e+01
16	2.7905e-01	2.0305e-01	-1.3294e-01	-4.5589e-02	3.3585e+02
17	8.5484e-01	2.2646e-01	1.9780e-01	-1.3054e-02	1.1151e+03
18	1.1506e+00	2.0399e-01	1.3745e-01	5.1300e-02	2.6768e+02
19	1.7849e-03	2.4980e-01	1.0422e-01	8.1685e-02	0.0000e+00
20	5.7156e-01	2.4666e-01	1.9115e-01	-1.7909e-01	4.6130e+02
21	3.2157e-01	2.0536e-01	-1.2808e-01	-1.1941e-01	3.4187e+02
22	3.9241e-01	1.6510e-02	-1.8962e-01	-1.9958e-01	1.6875e+03
23	2.2949e-01	1.6581e-01	-1.0113e-01	-1.5072e-01	6.4685e+02
24	7.3558e-01	8.0608e-02	6.5246e-02	-7.2960e-02	2.1981e+03
25	-2.3251e-03	1.8639e-01	9.4695e-02	4.0571e-01	4.0842e+02
26	1.8130e-01	1.7172e-02	-8.6095e-02	-6.1694e-03	1.4685e+03
27	1.5825e-01	8.5960e-02	-1.6428e-01	4.8370e-02	1.2055e+03
28	3.0573e-01	-4.0981e-04	-2.0227e-01	-4.7919e-02	1.3080e+03
29	4.7691e-01	1.7695e-01	-4.0115e-02	-7.9329e-02	9.4240e+02
30	-3.9291e-03	4.4128e-02	3.7471e-01	4.0428e-02	1.7785e+03
31	1.9566e-01	4.4333e-02	-1.2226e-01	-5.3789e-02	1.4652e+03
32	2.9117e-01	1.7014e-01	-1.0133e-01	-3.9236e-02	6.5307e+02
33	6.5198e-01	2.4329e-01	2.3096e-01	-1.6105e-01	5.9655e+02
34	7.2384e-01	2.7713e-02	2.5097e-03	-9.0150e-02	2.1653e+03
35	8.5746e-01	2.1451e-01	1.4051e-01	1.8242e-02	1.2391e+03
36	2.8417e-01	9.1011e-02	-5.4627e-02	-2.4188e-02	1.4028e+03
37	1.1276e+00	2.2846e-01	1.6879e-01	6.7523e-02	1.2530e+02
38	7.4368e-01	4.7762e-02	3.7254e-02	-1.4128e-01	2.3457e+03
39	8.5913e-01	2.5170e-01	2.1501e-01	-6.7648e-02	8.6838e+02
40	4.5086e-01	2.1065e-01	2.0788e-02	-4.0827e-02	5.8809e+02
41	1.2790e-01	1.4048e-01	-2.1324e-01	-3.2671e-02	7.2347e+02
42	3.8844e-01	2.3463e-02	-2.1545e-01	2.0144e-03	1.4543e+03
43	8.2098e-01	1.8325e-01	1.2397e-01	-1.6413e-02	1.3905e+03
44	4.7745e-01	2.0610e-01	5.0836e-02	-5.1687e-02	6.6960e+02
45	1.1078e+00	2.3772e-01	1.7616e-01	2.8530e-02	1.1486e+02
46	2.3958e-01	1.8819e-01	-1.2620e-01	-8.2797e-02	5.0132e+02
47	4.9876e-01	1.5893e-01	8.0882e-02	-1.5259e-02	1.2411e+03
48	2.3709e-01	1.1912e-01	-6.7213e-02	-2.5721e-03	1.1481e+03
49	6.0910e-01	2.2365e-01	2.1122e-01	-1.3388e-01	7.4332e+02
50	9.1812e-01	1.9782e-01	1.1903e-01	2.3139e-02	1.2093e+03
51	1.3326e-01	1.8969e-01	-2.6766e-01	1.3038e-01	6.3609e+02
52	1.5849e-01	5.8637e-02	-3.5118e-02	3.1777e-02	1.3017e+03
53	7.3543e-03	1.6110e-01	-8.2537e-02	3.0764e-01	5.9290e+02
54	1.5981e-01	1.5957e-01	-2.0977e-01	1.8054e-02	7.6785e+02
55	2.2931e-01	1.1808e-01	-9.3973e-02	4.1377e-02	1.1526e+03
56	6.6275e-01	2.9968e-01	1.7524e-01	-1.7710e-01	1.7010e+02
57	4.6686e-01	2.6630e-01	1.8025e-02	-1.4039e-01	5.8083e+01
58	1.2395e+00	1.9987e-01	1.1847e-01	8.9551e-02	1.5076e+02
59	4.5999e-01	1.6279e-01	6.7474e-02	1.9424e-02	9.9644e+02
60	9.6907e-02	1.9326e-01	-3.5178e-01	2.5710e-01	6.7850e+02
61	8.3942e-01	3.1797e-01	2.0108e-01	-5.0800e-02	4.0143e+02
62	8.2460e-01	3.7378e-02	3.5531e-02	-1.0485e-01	2.0102e+03
63	2.3544e-01	1.9865e-01	-6.6542e-02	-3.3063e-02	4.5733e+02
64	3.9136e-01	-2.3088e-02	3.0511e-01	1.2517e-02	0.0000e+00
65	-1.2606e-02	-2.3590e-03	-1.0818e-01	1.0448e-02	1.1354e+03
66	4.7777e-02	-2.0962e-02	2.0416e-01	1.6784e-01	0.0000e+00
67	1.3104e-01	1.6511e-01	-8.5979e-02	8.7468e-03	6.4318e+02
68	8.8017e-02	2.2907e-02	-9.6157e-02	-5.9308e-02	1.4621e+03
69	1.3933e-01	1.1802e-01	-1.0417e-01	2.4164e-02	9.3126e+02
70	2.3049e-02	4.9125e-02	-6.7492e-02	-1.9630e-02	1.4308e+03
71	4.6981e-01	-4.3200e-03	-8.2296e-02	7.1702e-02	1.7161e+03
72	6.7656e-01	1.1034e-01	6.0262e-02	-1.2199e-01	2.0217e+03
73	2.2428e-01	-3.5677e-03	-1.2414e-02	1.9717e-01	1.7090e+03
74	1.8673e-01	5.7438e-02	-3.7458e-02	3.9408e-02	1.3419e+03
75	1.1672e+00	2.1728e-01	1.7729e-01	2.0445e-02	0.0000e+00
76	5.6231e-01	9.8346e-02	-8.4014e-02	-3.5981e-02	1.6892e+03
77	4.2092e-01	1.5514e-01	-8.0581e-03	-2.8632e-02	1.0329e+03
78	5.6970e-01	2.2568e-01	5.9490e-02	-1.8231e-01	6.4127e+02
79	1.1464e-01	1.2352e-01	-1.0325e-01	-1.1503e-01	1.0164e+03
80	4.1891e-01	3.3228e-02	4.9985e-03	-3.4264e-02	1.7179e+03
81	5.2918e-01	1.2163e-01	-6.5970e-02	-6.6941e-02	1.6264e+03
82	1.9412e-01	1.3606e-01	-1.1540e-01	-7.1860e-02	1.0870e+03
83	1.1355e+00	1.5177e-01	5.2716e-02	6.0612e-02	8.5916e+02
84	6.7891e-02	7.5913e-02	1.3975e-01	-1.3940e-01	1.2753e+03
85	8.8124e-01	3.6181e-01	2.2158e-01	-5.6713e-05	0.0000e+00
86	2.0731e-02	7.4152e-02	-1.4754e-01	-3.3336e-02	1.1431e+03
87	7.2680e-02	1.3796e-01	-2.4984e-01	1.2308e-01	7.9940e+02
88	1.3785e-02	1.6632e-01	-3.3401e-01	7.5243e-02	3.5946e+02
89	5.7480e-01	1.3867e-01	9.0834e-02	-1.0515e-01	1.6000e+03
90	6.9265e-01	2.6252e-01	1.3541e-01	-5.9797e-02	6.1776e+02
91	5.2721e-01	2.1066e-01	2.8047e-02	-9.1787e-02	7.6593e+02
92	2.2492e-01	9.8432e-02	-5.2120e-02	3.0598e-02	1.2349e+03
93	4.9674e-01	2.0136e-01	5.1855e-02	3.1377e-02	7.1899e+02
94	9.5669e-01	2.6525e-01	1.7253e-01	-4.2447e-02	4.8187e+02
95	1.1507e-01	4.4407e-02	-1.5980e-02	-8.9206e-02	1.4818e+03
96	7.5105e-01	1.2642e-02	1.8508e-04	-5.4511e-02	2.4200e+03
97	4.8096e-01	2.7069e-01	7.8893e-02	-1.6172e-01	6.3127e+01
98	2.6025e-01	1.6240e-01	-1.0993e-01	-3.1695e-02	7.4307e+02
99	8.2586e-01	2.6676e-01	1.8334e-01	-4.6415e-02	8.0067e+02
100	3.0654e-01	1.9619e-02	2.5164e-04	4.0969e-02	1.4694e+03
101	5.3583e-01	2.6235e-01	1.6796e-01	-7.1422e-02	3.6261e+02
102	8.9010e-01	3.1451e-01	1.7703e-01	5.9520e-03	2.9006e+02
103	1.0387e+00	1.7993e-01	1.1393e-01	1.6219e-02	9.2963e+02
104	6.7507e-02	1.5536e-01	-2.7112e-01	1.6157e-01	6.4483e+02
105	6.6887e-01	2.7928e-01	1.4139e-01	-8.1632e-02	3.4499e+02
106	3.1832e-02	2.0196e-01	-2.6238e-01	3.7667e-01	-1.6350e+01
107	6.5147e-01	2.7767e-01	2.0596e-01	-1.6649e-01	3.5897e+02
108	3.3821e-01	9.5228e-02	-8.3224e-02	-1.3200e-01	1.4310e+03
109	8.0227e-01	3.1623e-01	2.2912e-01	-2.4781e-02	3.6237e+02
110	1.1431e+00	1.7874e-01	1.6698e-01	8.6693e-02	5.5301e+02
111	9.4478e-01	3.0803e-01	2.3555e-01	-6.4050e-03	2.2704e+02
112	4.7314e-02	1.7634e-01	1.9909e-02	2.0527e-01	7.4276e+02
113	4.3116e-02	2.0369e-02	-1.1941e-01	-1.3446e-01	1.4356e+03
114	4.5947e-01	2.1290e-01	-3.7633e-03	-4.3035e-02	5.8596e+02
115	2.6030e+00	5.0243e-02	1.8353e-02	5.1305e-03	1.5071e+03
116	8.9855e-01	1.8836e-01	1.7662e-01	-4.4329e-02	1.3079e+03
117	1.1026e+00	1.4833e-01	6.8626e-02	6.9449e-02	1.0111e+03
118	6.8436e-01	2.7337e-01	1.2752e-01	-1.3399e-01	4.5494e+02
119	5.4157e-01	2.5719e-01	1.8254e-01	-1.2278e-01	3.1298e+02
120	8.1759e-01	2.6059e-01	1.5132e-01	3.6833e-03	8.7423e+02
121	3.8875e-01	1.7716e-01	-7.7106e-02	-9.0454e-02	6.4578e+02
122	3.8569e-01	2.5304e-01	-7.2551e-02	-1.6800e-01	4.9841e+01
123	4.9493e-01	2.1985e-01	3.4382e-02	-1.1501e-01	6.3036e+02
124	2.4530e-01	2.2217e-01	-8.9883e-02	-5.6038e-03	1.2975e+02
125	4.4160e-01	5.5725e-02	-7.7886e-02	-6.7479e-02	1.9094e+03
126	3.2407e-01	2.0600e-01	-1.1180e-01	-8.8150e-02	3.2809e+02
127	4.4959e-01	2.3888e-01	1.0588e-02	-4.9773e-02	3.3575e+02
128	2.3027e-01	8.7547e-02	-4.5506e-02	-1.6769e-02	1.4333e+03
129	-5.3210e-03	7.4154e-03	1.0819e-01	8.3102e-02	9.3002e+02
130	7.6564e-01	3.4687e-01	1.5868e-01	-1.1064e-01	6.1556e+01
131	4.3069e-01	2.3194e-01	3.3633e-03	-1.0120e-01	3.0950e+02
132	2.1510e-01	2.3369e-02	-3.5036e-01	-5.0090e-02	2.1375e+03
133	3.1350e-01	-5.8520e-03	-5.7956e-02	-1.9827e-01	1.3642e+03
134	4.9589e-02	9.7038e-02	2.4856e-01	2.8318e-01	1.1577e+03
135	4.7617e-02	8.0647e-02	2.6792e-02	1.2848e-01	1.3811e+03
136	2.3045e-01	2.1219e-01	-1.2164e-01	-8.1505e-03	2.4178e+02
137	4.6742e-01	1.4816e-01	-2.0269e-03	-5.8383e-02	1.2264e+03
138	5.3599e-01	2.4597e-01	1.6454e-01	-9.6518e-02	4.2857e+02
139	4.9801e-01	2.4854e-01	1.1440e-01	-9.2737e-02	3.2916e+02
140	3.6998e-01	1.7742e-01	-9.2527e-02	-5.8812e-02	6.9421e+02
141	3.4947e-01	2.7484e-02	-8.1918e-02	1.2530e-01	1.7757e+03
142	7.7341e-02	1.4771e-01	-2.4875e-01	5.9302e-02	8.5349e+02
143	2.0233e-01	3.2332e-02	-1.5638e-01	1.7490e-01	1.1456e+03
144	3.1268e-01	1.3648e-01	-6.8732e-02	-9.3615e-02	1.0092e+03
145	3.4210e-01	2.0216e-01	-1.3425e-01	-3.4763e-02	3.5152e+02
146	6.9519e-01	3.2469e-01	1.8125e-01	-1.1110e-01	2.5370e+00
147	4.3110e-02	2.2280e-01	-9.6023e-02	4.4808e-01	0.0000e+00
148	1.4102e+00	8.3941e-02	-7.6262e-02	1.2430e-01	1.3106e+03
149	7.6530e-01	1.3487e-01	1.1536e-01	-6.5986e-03	1.7363e+03
150	4.8029e-01	7.1997e-02	-2.6502e-02	-1.1807e-02	1.8947e+03
151	5.3753e-01	2.7201e-01	1.4542e-01	-1.2021e-01	2.2987e+02
152	1.9900e-01	2.1471e-01	-1.1157e-01	-1.8751e-01	1.4679e+02
153	6.1560e-01	9.1292e-02	-6.7273e-02	-5.0927e-02	1.8421e+03
154	7.6421e-01	1.5393e-01	1.7170e-01	-6.5445e-02	1.6226e+03
155	1.3526e-01	2.9086e-02	-5.3015e-02	3.2893e-02	1.3721e+03
156	3.5534e-01	1.0613e-01	-9.7747e-02	5.3734e-03	1.2858e+03
157	5.7397e-01	2.5724e-01	2.0686e-01	-1.4233e-01	4.0487e+02
158	1.1499e+00	1.6002e-01	1.2044e-01	3.9688e-02	7.6952e+02
159	3.9389e-01	4.9404e-02	-1.4823e-01	5.0835e-02	1.9709e+03
160	6.5806e-01	5.4728e-02	-2.4267e-02	-1.2871e-01	2.1663e+03
161	9.2915e-01	2.0775e-01	8.2572e-02	-3.3937e-02	1.0737e+03
162	2.4128e-01	1.7516e-01	-1.3410e-01	-5.5579e-02	6.3792e+02
163	3.5295e-01	1.4216e-01	-1.3335e-01	-8.5287e-02	9.3006e+02
164	7.2722e-01	1.5726e-01	1.4953e-01	-2.5696e-02	1.5941e+03
165	5.1863e-01	2.8158e-01	1.2404e-01	-1.9087e-01	5.6150e+01
166	2.8516e-01	2.0775e-01	-1.4175e-01	-3.0443e-02	2.7922e+02
167	5.0935e-01	2.3490e-01	2.0432e-01	-7.8418e-02	5.2734e+02
168	2.7340e-01	1.3459e-02	-7.5889e-02	-5.4533e-02	1.4615e+03
169	1.4386e-01	5.9860e-02	6.4711e-02	-7.5351e-03	1.4169e+03
170	2.5175e-02	3.8262e-02	1.3761e-01	1.5218e-03	1.6598e+03
171	4.3635e-01	1.3730e-02	-9.7525e-02	2.0323e-02	1.7267e+03
172	5.0706e-01	1.8134e-01	-1.8715e-02	-5.4745e-02	9.7460e+02
173	1.8146e-01	9.5133e-02	-1.9203e-01	-1.3045e-01	1.1732e+03
174	6.8296e-01	2.3834e-01	2.1073e-01	-1.6863e-01	7.2735e+02
175	4.2667e-01	1.2761e-02	-2.1220e-01	-3.0901e-03	1.4763e+03
176	9.1934e-01	1.5399e-01	1.5104e-01	-8.8112e-03	1.4300e+03
177	2.0042e-02	8.4343e-02	2.4586e-01	1.8026e-01	1.5161e+03
178	2.7877e-01	1.0819e-01	-5.8300e-02	-8.5528e-02	1.3394e+03
179	7.0039e-01	2.5676e-01	1.7296e-01	-7.3699e-02	6.5828e+02
180	3.1421e-01	1.9463e-01	-7.9096e-02	-8.8669e-02	4.1667e+02
181	2.9180e-01	1.8857e-01	-6.6122e-02	-4.3222e-02	4.8294e+02
182	9.0346e-02	1.4570e-01	-3.1945e-01	1.7804e-01	7.3899e+02
183	9.5167e-02	1.5778e-01	-2.2017e-01	6.7078e-02	7.3243e+02
184	7.0417e-01	2.1691e-01	2.4632e-01	-1.1423e-01	9.7703e+02
185	3.7296e-01	1.2069e-01	-8.9030e-02	-9.1636e-02	1.1977e+03
186	1.1372e+00	1.8567e-01	1.3428e-01	2.2714e-02	5.2345e+02
187	5.7492e-01	1.8665e-01	1.0264e-01	-1.2559e-01	1.0823e+03
188	1.8800e-01	6.5384e-02	-5.4184e-02	3.0116e-02	1.3045e+03
189	8.1439e-01	2.0503e-01	1.5480e-01	-2.9644e-02	1.2861e+03
190	4.7090e-01	5.5738e-02	-1.1381e-01	-1.6657e-03	1.9369e+03
191	4.4973e-01	1.6746e-01	-2.4060e-02	-6.5223e-03	9.7229e+02
192	1.0019e-01	6.6998e-02	-1.4879e-01	-3.6838e-02	1.4462e+03
193	6.5874e-02	2.2555e-02	4.7832e-02	1.1714e-01	1.4688e+03
194	5.8023e-02	1.7079e-01	-3.3713e-01	2.0673e-01	5.2955e+02
195	3.3994e-01	2.7911e-02	-8.8345e-02	-2.8751e-02	1.7840e+03
196	-7.5783e-03	4.9559e-02	2.1801e-01	-7.4904e-02	1.5488e+03
197	4.0052e-02	1.2926e-01	-1.1516e-02	2.0254e-01	9.1832e+02
198	5.6958e-02	8.0341e-02	-1.0572e-01	5.2697e-02	1.3096e+03
199	2.5744e-01	4.7624e-02	6.6668e-02	-2.8018e-02	1.5924e+03
200	9.4563e-03	1.2262e-01	-1.3772e-01	-1.7659e-02	1.0911e+03
201	1.0625e-02	2.8728e-02	7.1677e-02	4.6852e-02	1.3839e+03
202	1.5902e-01	3.0368e-02	2.8423e-02	2.9810e-02	1.4065e+03
203	2.5332e-01	3.4343e-02	-2.2795e-02	3.0725e-02	1.2793e+03
204	3.3660e-02	5.0437e-02	-4.3721e-02	-7.2958e-02	1.5779e+03
205	4.7730e-01	2.1861e-01	6.7594e-03	-1.0041e-01	5.9614e+02
206	4.1634e-01	2.3569e-01	1.7787e-02	-7.8783e-02	3.0567e+02
207	2.6405e-01	1.9193e-02	-1.4337e-01	-5.3527e-02	1.5431e+03
208	6.8029e-02	1.0622e-01	1.3212e-01	-5.0014e-02	1.1395e+03
209	1.0504e-01	1.8709e-01	-2.9485e-01	-7.1322e-02	3.8705e+02
210	6.7242e-01	1.3688e-01	1.4993e-01	-1.4404e-01	1.8232e+03
211	3.4526e-01	2.4544e-01	-1.1171e-01	-1.2504e-01	0.0000e+00
212	1.4417e-02	9.0612e-02	9.7150e-02	7.2667e-02	1.2064e+03
213	3.7925e-01	2.7000e-02	-5.9966e-03	-3.6269e-02	1.9537e+03
214	1.0029e-01	5.5361e-02	4.0829e-02	-4.4414e-02	1.3343e+03
215	2.0990e-01	2.1795e-01	-1.4436e-01	-8.2255e-02	1.2296e+02
216	7.5592e-01	2.7691e-01	1.9171e-01	-1.7410e-02	6.7805e+02
217	9.1409e-02	7.5972e-02	3.6705e-02	8.9151e-02	1.0213e+03
218	5.5302e-01	2.2097e-01	9.9820e-02	-1.0932e-01	6.9130e+02
219	4.5178e-01	4.3267e-02	-1.7240e-01	1.1849e-02	1.8193e+03
220	3.1865e-01	5.4553e-02	-6.0785e-02	-5.1585e-02	1.6635e+03
221	3.7255e-01	1.2486e-01	-2.8722e-02	-7.7220e-02	1.1371e+03
222	1.5472e-01	1.9336e-01	-1.6249e-01	-1.0507e-01	1.6992e+02
223	3.1344e-01	7.5135e-02	-5.6865e-02	-7.1391e-02	1.5827e+03
224	2.1128e-01	1.2647e-02	7.8855e-02	2.7645e-02	1.9191e+03
225	6.3893e-01	3.0835e-01	9.4033e-02	-1.6523e-01	0.0000e+00
226	7.9904e-02	1.9418e-01	-4.7539e-01	6.3639e-02	2.4384e+02
227	1.0733e+00	2.2687e-01	1.5982e-01	3.4208e-02	4.0317e+02
228	5.4936e-01	5.3274e-02	-1.6963e-02	-8.8448e-02	1.8628e+03
229	3.3362e-01	1.1082e-01	-1.5431e-02	-5.9010e-02	1.2773e+03
230	2.2786e-01	2.1883e-01	-1.5022e-01	-1.6031e-02	1.4360e+02
231	3.5633e-02	8.7634e-02	-1.8469e-01	-1.7024e-01	1.2832e+03
232	9.9032e-02	1.3927e-01	-2.2521e-01	1.4278e-01	6.2785e+02
233	7.4657e-01	1.4203e-01	1.8837e-01	-3.2589e-02	1.7767e+03
234	1.2216e+00	1.3267e-01	9.7591e-02	4.1414e-02	8.5337e+02
235	3.8361e-01	2.1543e-01	8.8090e-03	-1.1882e-01	3.4631e+02
236	2.2230e-01	1.3403e-01	-1.1060e-01	5.6697e-02	9.7711e+02
237	7.3465e-01	1.1438e-01	1.1715e-01	-7.1193e-02	1.9311e+03
238	1.4173e-01	3.9779e-02	-4.9331e-02	-1.9760e-02	1.4112e+03
239	7.4507e-01	2.8255e-01	2.1889e-01	-1.1432e-02	6.1747e+02
240	4.8627e-01	1.5192e-01	4.0803e-02	9.9031e-03	1.2626e+03
241	6.0137e-01	2.3930e-01	1.6083e-01	-2.1570e-01	5.5385e+02
242	8.3160e-01	1.8175e-01	1.0716e-01	-2.7319e-03	1.4538e+03
243	7.9753e-01	1.4025e-01	1.0133e-01	-1.1298e-01	1.7968e+03
244	3.4013e-01	2.4014e-01	-1.1315e-01	-1.4166e-01	1.1972e+02
245	1.8553e-01	1.3831e-01	-1.8190e-01	-9.0495e-02	1.0048e+03
246	4.7196e-01	1.6661e-01	1.2744e-02	-3.9325e-02	1.0784e+03
247	6.7489e-01	7.6196e-02	7.8405e-02	3.1920e-03	2.1864e+03
248	1.2732e+00	1.9463e-01	1.2364e-01	7.2757e-02	1.1838e+02
249	2.0777e-01	1.0056e-01	-7.3572e-02	5.4502e-02	1.2585e+03
250	1.0504e-01	1.2226e-01	-2.7190e-01	1.2737e-02	1.4139e+03
251	4.9396e-01	2.3469e-01	1.6393e-01	-8.5921e-02	3.8520e+02
252	1.2528e+00	1.8050e-01	8.5691e-02	3.5704e-02	2.6884e+02
253	1.7582e-01	2.1531e-01	-1.1643e-01	6.9537e-03	-2.3915e+02
254	2.8885e-01	4.8661e-02	-4.5216e-02	-3.0323e-03	1.6271e+03
255	3.6337e-01	7.6609e-02	-5.2869e-02	1.2679e-02	1.5976e+03
256	5.7566e-01	2.0008e-01	7.4344e-02	-1.6790e-01	9.0312e+02
257	1.3939e-01	-1.2290e-03	-9.9087e-02	-2.1984e-02	1.5848e+03
258	1.4723e-01	2.0222e-01	-2.3390e-01	-1.2413e-01	2.0805e+02
259	5.1146e-02	7.1415e-02	-1.5878e-01	-2.5567e-02	1.2496e+03
260	2.8529e-01	2.3048e-01	-8.2821e-02	-2.6362e-02	1.2205e+02
261	1.2173e-01	7.7564e-02	-6.1303e-02	1.8579e-01	8.1155e+02
262	3.5998e-01	1.0913e-01	-2.4932e-02	-7.1444e-02	1.3010e+03
263	1.0324e-02	1.9841e-01	2.9194e-02	2.0585e-01	3.9562e+02
264	1.0484e-02	2.0498e-01	1.6503e-01	1.7718e-01	3.8251e+02
265	-3.0259e-04	2.2400e-01	4.2575e-02	2.4330e-01	0.0000e+00
266	1.7281e-02	1.4623e-01	-3.5614e-02	8.1318e-02	1.0691e+03
267	3.6945e-02	3.2792e-02	7.6926e-02	5.7626e-02	1.4633e+03
268	2.4544e-01	1.8578e-02	-2.1187e-01	6.7445e-02	1.5674e+03
269	6.5730e-01	2.6674e-01	2.0281e-01	-1.8347e-01	3.8822e+02
270	4.6100e-02	1.5508e-01	-3.4755e-01	3.3901e-02	4.4618e+02
271	5.2006e-02	2.0057e-01	1.5618e-01	2.5711e-01	3.1782e+02
272	3.7363e-01	1.5954e-01	-6.2291e-02	-4.0831e-02	7.7149e+02
273	1.5282e-02	1.4203e-01	-1.0014e-01	1.3009e-01	9.0431e+02
274	5.0837e-01	1.4646e-01	-5.7566e-03	-1.4069e-02	1.3321e+03
275	7.1453e-02	1.2042e-01	-1.1101e-01	1.2412e-01	9.0757e+02
276	5.4123e-01	3.4818e-02	-2.1790e-01	1.1831e-01	1.5061e+03
277	6.3971e-01	1.3576e-01	5.2636e-02	-1.6522e-01	1.7088e+03
278	1.8040e-01	1.1855e-01	-7.0671e-02	-5.1821e-02	9.4261e+02
279	5.3812e-01	2.2636e-01	1.5988e-01	-9.5508e-02	6.1805e+02
280	6.1785e-01	4.9647e-02	-1.8123e-01	3.4044e-02	1.9199e+03
281	5.9046e-01	2.7549e-01	1.5087e-01	-2.1083e-01	1.8035e+02
282	5.6569e-01	2.2594e-01	1.3084e-01	-1.0674e-01	6.9478e+02
283	1.3423e-01	1.5019e-01	-1.6016e-01	-2.3823e-02	7.6121e+02
284	5.1012e-01	2.4440e-01	1.0182e-01	-1.1358e-01	3.9844e+02
285	4.2313e-02	1.1905e-01	-1.5009e-01	4.7392e-02	7.5381e+02
286	2.7552e-02	1.5164e-01	-3.9811e-02	3.1984e-01	1.4826e+02
287	3.3187e-02	1.3900e-01	-1.5895e-01	-1.4355e-01	3.4922e+02
288	9.8386e-01	1.7775e-01	4.8027e-02	-4.1109e-03	1.1555e+03
289	1.7622e-03	6.1071e-02	-1.1608e-01	6.8986e-02	1.4738e+03
290	5.2628e-01	1.9802e-01	1.2986e-01	-1.2799e-01	8.7148e+02
291	1.3018e-01	1.1063e-01	-2.1604e-01	9.5105e-02	8.7037e+02
292	4.7167e-01	1.0787e-01	8.2722e-03	-4.6494e-02	1.6328e+03
293	2.8727e-02	1.5537e-01	-5.9070e-01	-6.0783e-02	4.6577e+02
294	5.2097e-01	2.9146e-02	7.8523e-02	-3.7789e-02	1.9477e+03
295	2.4849e-01	6.6391e-02	-1.3432e-02	-1.1736e-01	1.5601e+03
296	4.3643e-01	1.9867e-01	-4.0984e-02	-5.8386e-02	6.3495e+02
297	2.4645e-01	1.0962e-01	-1.2219e-01	-8.9719e-02	1.2478e+03
298	5.3393e-01	2.0497e-01	4.6609e-02	-4.8171e-02	7.8151e+02
299	1.7458e-01	9.5994e-02	-1.5608e-01	6.6415e-02	1.1722e+03
300	8.5483e-02	1.5130e-01	-1.7421e-01	1.5882e-01	7.4869e+02
301	6.3827e-01	3.0226e-01	2.3202e-01	-2.1316e-01	3.1308e+02
302	1.3920e-01	1.6430e-01	-2.7500e-01	-1.6654e-02	6.7290e+02
303	1.6570e-01	1.0645e-01	-1.0979e-01	8.9355e-02	1.0284e+03
304	8.6836e-01	2.8947e-01	1.8947e-01	3.7021e-02	5.8850e+02
305	3.1615e-01	2.3485e-01	-1.7144e-01	-1.1237e-01	1.1196e+02
306	7.6494e-01	2.1541e-01	1.6607e-01	2.6399e-02	1.2086e+03
307	2.0182e+00	1.4510e-01	-1.7616e-02	-2.5477e-02	5.6767e+02
308	6.0201e-01	7.4257e-02	4.4393e-02	-8.8057e-02	2.0388e+03
309	7.7060e-02	1.9258e-01	-2.4403e-01	7.2173e-02	2.5617e+02
310	5.2729e-01	3.4423e-02	-1.6993e-01	-1.3849e-01	2.1558e+03
311	2.1616e-01	4.0525e-02	4.5265e-02	5.6947e-02	1.4767e+03
312	6.9055e-01	1.2281e-01	1.0234e-01	-6.9821e-02	1.9321e+03
313	1.2686e-02	2.2587e-01	-4.0334e-02	3.9071e-01	0.0000e+00
314	8.0246e-02	1.2838e-01	-3.1164e-02	3.1751e-02	7.8889e+02
315	5.2085e-02	1.3593e-01	7.0311e-02	1.0898e-01	5.2316e+02
316	3.7089e-01	2.0238e-01	-8.0349e-02	-1.2583e-01	4.5050e+02
317	1.4430e-01	9.6747e-02	-1.0508e-01	6.1209e-02	1.3169e+03
318	8.2834e-01	3.3082e-01	2.5122e-01	4.4747e-02	3.4536e+02
319	3.5702e-01	1.9553e-01	-8.6066e-02	-6.9334e-02	4.6156e+02
320	1.1821e-01	4.8800e-02	-1.5396e-01	3.0677e-02	1.3728e+03
321	3.2561e-01	1.2086e-01	-6.6791e-02	-7.6302e-02	1.1508e+03
322	8.1884e-02	1.0178e-01	-1.8108e-01	7.0741e-03	1.2181e+03
323	2.3016e-01	1.9813e-01	-1.6485e-01	3.3873e-02	2.7912e+02
324	5.4936e-01	-1.6073e-02	7.1215e-02	-1.3227e-01	1.3041e+03
325	1.5313e-02	6.2155e-02	4.4710e-02	-1.0176e-04	1.6742e+03
326	5.3834e-02	1.6035e-01	-1.7307e-01	1.3985e-01	3.4663e+02
327	1.4875e-01	7.5805e-02	-1.5526e-02	6.8920e-02	1.1918e+03
328	9.6394e-02	1.0872e-01	-4.5266e-03	4.0052e-02	9.0810e+02
329	3.1903e-02	1.0450e-01	-9.1795e-02	1.8646e-01	1.2822e+03
330	3.0228e-01	1.2033e-01	-5.4739e-02	-5.3996e-02	1.1851e+03
331	1.2717e-01	3.7431e-02	-1.3620e-02	-4.8526e-03	1.3977e+03
332	2.1098e-01	4.5280e-02	-1.6698e-01	-1.1975e-02	1.5535e+03
333	3.2731e-02	3.2443e-02	-7.5844e-02	3.3014e-02	1.4951e+03
334	8.3403e-02	6.9787e-02	-3.8886e-03	5.5638e-02	1.2965e+03
335	9.9113e-02	1.9646e-01	-2.9326e-01	-3.8435e-02	2.0302e+03
336	2.1964e-01	1.1866e-01	-7.2620e-02	4.1573e-02	1.0793e+03
337	2.2981e-01	1.0810e-01	-6.6913e-02	2.5222e-02	1.2173e+03
338	9.0104e-01	2.7185e-01	1.6239e-01	-5.7774e-02	6.3914e+02
339	2.5516e-02	1.4724e-01	1.0195e-02	8.9291e-02	6.3612e+02
340	2.5320e-01	1.4466e-01	1.2590e-02	3.8311e-02	9.4448e+02
341	5.4124e-01	2.7764e-01	1.7715e-01	-1.0106e-01	7.1721e+01
342	2.2444e+00	1.3875e-01	9.3850e-02	-4.0011e-02	6.4213e+02
343	4.8575e-01	5.4617e-02	-2.2213e-02	1.1722e-02	1.9195e+03
344	7.7120e-01	2.6987e-01	1.9893e-01	-3.8460e-02	8.0647e+02
345	6.0058e-01	1.4924e-01	4.8873e-03	-1.7730e-01	1.5015e+03
346	1.4394e+00	1.0093e-01	-1.5972e-02	5.4570e-02	1.0775e+03
347	2.9195e-01	2.9658e-02	-1.3689e-01	-2.1279e-02	1.7850e+03
348	5.2531e-01	2.3061e-01	9.9857e-02	-3.2887e-02	5.6670e+02
349	2.7198e-01	2.2242e-01	-1.6382e-01	-5.7389e-02	1.6928e+02
350	2.3287e-01	6.5329e-02	-5.1603e-02	2.3732e-02	1.4448e+03
351	1.7967e-01	1.1066e-01	7.5670e-02	-1.1975e-01	1.1830e+03
352	1.8301e+00	1.1277e-01	-7.9158e-02	-8.3034e-02	9.1442e+02
353	3.4550e-01	1.8108e-01	-8.8267e-02	-1.1479e-01	5.9444e+02
354	5.7955e-01	2.9181e-01	1.4673e-01	-1.5533e-01	0.0000e+00
355	5.3994e-01	2.2782e-01	1.2545e-01	-7.9717e-02	6.1970e+02
356	4.2089e-01	1.2964e-01	-1.5000e-02	3.1054e-02	1.2406e+03
357	1.1879e-01	1.3993e-01	-2.5675e-01	6.7839e-02	8.4206e+02
358	3.9123e-01	-4.4889e-03	-2.7257e-01	-1.6662e-01	2.1080e+03
359	2.2728e-02	5.7841e-02	7.3899e-03	3.1855e-01	1.3782e+03
360	3.7339e-01	5.2562e-02	-1.1102e-01	-1.3360e-02	1.8878e+03
361	2.7414e-01	1.6900e-01	-4.6374e-02	-2.9105e-02	6.7355e+02
362	8.9141e-02	1.6569e-01	-2.1861e-01	1.5021e-01	6.1658e+02
363	4.0540e-01	1.1307e-01	-2.9463e-02	4.8498e-02	1.2517e+03
364	1.6066e-01	1.2956e-01	-1.5234e-01	-4.4268e-02	1.0534e+03
365	7.2440e-01	2.7431e-01	1.2322e-01	-3.8333e-02	6.5141e+02
366	6.1500e-01	4.0500e-02	-1.0516e-01	-5.6004e-02	1.8366e+03
367	4.2081e-01	1.4245e-01	2.3097e-02	3.8524e-03	1.1252e+03
368	2.5805e-01	2.2953e-01	-1.4611e-01	-9.6164e-02	0.0000e+00
369	1.3476e-01	8.0216e-02	-8.1362e-02	5.1914e-02	1.0366e+03
370	7.0549e-01	6.5604e-02	1.4995e-02	-1.0731e-01	2.3728e+03
371	1.5029e-01	1.7564e-01	-1.9925e-01	-6.5744e-02	5.3566e+02
372	6.3033e-01	2.7519e-01	1.9183e-01	-2.4567e-01	3.2717e+02
373	6.9278e-02	1.5584e-01	-3.4795e-01	-2.4642e-02	6.2457e+02
374	1.2805e-01	5.0506e-02	2.8040e-03	-4.4984e-02	1.2896e+03
375	6.2932e-01	2.0115e-01	1.5635e-01	-1.1311e-01	9.6147e+02
376	7.8428e-01	2.7291e-01	1.9623e-01	-3.1340e-02	7.9782e+02
377	1.8551e-02	1.7146e-02	-5.4169e-02	-2.1184e-02	1.3542e+03
378	2.8679e-01	2.1609e-01	-2.4815e-02	-2.1292e-02	1.9072e+02
379	4.3344e-01	2.9742e-02	-6.6815e-02	6.4114e-02	1.5084e+03
380	2.6456e-01	4.8373e-02	-1.3238e-01	8.5481e-03	1.6849e+03
381	9.2883e-01	3.1704e-01	1.6202e-01	1.0554e-02	2.0934e+02
382	1.0110e+00	2.7991e-01	2.8203e-01	-2.3537e-02	8.0555e+01
383	6.4161e-01	8.7451e-02	4.2355e-03	-5.4726e-02	2.0647e+03
384	3.0132e-01	2.3278e-01	-1.8324e-01	-4.7702e-02	9.8402e+01
385	1.1088e-01	7.9206e-02	-6.5165e-02	4.3795e-02	1.1030e+03
386	-6.5410e-03	1.7142e-02	2.0819e-02	4.2584e-02	1.3008e+03
387	5.4933e-01	1.6237e-01	4.4764e-03	-1.7246e-01	1.3292e+03
388	2.9920e-01	1.5406e-01	-4.3907e-02	-1.0191e-01	8.6765e+02
389	6.4001e-01	2.7511e-01	1.8973e-01	-1.0982e-01	3.3300e+02
390	7.1852e-02	2.5147e-02	-5.9263e-02	-3.2109e-02	1.5744e+03
391	4.1591e-01	2.0618e-01	-5.2608e-02	-9.8739e-02	5.2815e+02
392	4.8157e-02	6.1551e-02	8.8503e-02	1.5551e-02	1.3055e+03
393	3.8592e-01	2.2703e-01	-1.2413e-01	-9.3222e-02	2.5634e+02
394	2.8126e-01	1.8239e-01	-5.7793e-02	2.1913e-02	5.2657e+02
395	7.6245e-01	2.9559e-01	2.4763e-01	-7.9426e-02	5.8264e+02
396	1.2292e-01	1.8049e-01	-1.8907e-01	-8.1386e-02	5.3121e+02
397	8.4129e-02	1.0975e-02	9.8069e-03	-8.1971e-03	1.4004e+03
398	2.3586e-01	5.8692e-02	-8.4294e-02	1.4152e-01	1.4614e+03
399	-3.5083e-03	2.5293e-02	1.0483e-01	3.9361e-02	1.3615e+03
400	5.4026e-02	2.2165e-02	-8.6785e-02	-1.9762e-02	1.6835e+03
401	6.1617e-01	6.6429e-02	-2.4992e-02	-8.2465e-02	1.8574e+03
402	1.2430e-01	6.4434e-02	-5.2075e-02	1.2838e-01	1.2360e+03
403	1.1374e-02	1.6932e-01	-7.7500e-02	2.6097e-01	3.8282e+02
404	2.9218e-01	6.3477e-02	-7.8125e-02	-5.2691e-02	1.5450e+03
405	3.6055e-01	1.7577e-01	-4.0581e-02	-3.8225e-02	5.9163e+02
406	5.7769e-02	1.0601e-01	7.2019e-02	1.0570e-01	1.1967e+03
407	4.4964e-01	-3.4465e-03	-1.9138e-01	4.4482e-02	1.8674e+03
408	3.0012e-01	4.5431e-02	-1.2349e-01	-6.6976e-02	1.7075e+03
409	4.8140e-01	1.6816e-01	3.5802e-02	2.4108e-02	1.1068e+03
410	5.5691e-01	8.7758e-02	-3.1602e-02	-5.2800e-02	1.8041e+03
411	2.7559e-01	1.1455e-01	-1.9234e-02	1.1984e-02	1.2519e+03
412	1.5647e-02	6.6006e-02	5.3087e-02	6.0261e-02	1.6726e+03
413	5.6114e-02	-3.7065e-03	-1.1066e-01	1.2568e-01	1.3732e+03
414	5.6818e-01	2.3591e-01	1.8995e-01	-1.5681e-01	5.7663e+02
415	3.4531e-01	2.3258e-01	-4.8360e-02	-1.2403e-01	1.2241e+02
416	1.8716e-01	1.8100e-01	-1.3456e-01	-4.7364e-02	5.6926e+02
417	3.4096e-01	9.7964e-02	-5.8259e-02	-6.3215e-02	1.3914e+03
418	2.9505e-01	1.9782e-01	-9.7218e-02	-5.0333e-02	4.0203e+02
419	1.2966e-01	1.2423e-01	-8.2340e-02	4.5954e-02	1.1789e+03
420	2.1175e-01	2.0577e-01	-1.3690e-01	-7.1060e-02	3.4116e+02
421	4.0741e-02	1.0963e-01	9.8153e-02	2.6932e-03	7.2524e+02
422	7.9712e-01	3.6124e-01	1.5927e-01	-4.1027e-02	-5.6474e+00
423	3.8103e-01	2.4636e-01	-1.0326e-01	-1.2148e-01	-3.1739e+01
424	2.1470e-01	8.7860e-02	6.1693e-03	9.2943e-02	1.1794e+03
425	3.2281e-01	-2.5782e-03	-5.2477e-02	9.2190e-03	1.6238e+03
426	3.0788e-01	1.1251e-01	-1.0213e-01	-8.9435e-02	1.2800e+03
427	1.3895e-01	1.8738e-01	-1.9989e-01	-2.2111e-02	4.9374e+02
428	1.3350e-01	1.7628e-01	-2.6398e-01	7.4642e-02	3.8932e+02
429	5.4340e-01	2.8310e-01	1.6332e-01	-1.4921e-01	9.2779e+01
430	7.0688e-01	-1.8610e-03	1.0068e-01	1.5623e-01	1.6688e+03
431	1.5549e-01	8.8811e-02	-4.4275e-02	9.3130e-02	1.2338e+03
432	3.8736e-01	1.9044e-01	-5.4897e-02	-1.2720e-01	5.8077e+02
433	9.3431e-02	1.9746e-01	2.4086e-01	-1.3190e-01	2.9158e+03
434	1.2050e-01	1.5789e-01	-1.4228e-01	-4.7603e-02	6.0798e+02
435	4.3415e-01	2.1486e-01	-6.5061e-02	-1.5250e-02	4.9415e+02
436	7.2644e-01	3.0203e-02	-2.0145e-02	2.2229e-02	2.1430e+03
437	2.6945e-01	2.2669e-01	-1.0225e-01	-2.2777e-02	5.5798e+01
438	6.1693e-01	2.0473e-01	7.0165e-02	-1.8110e-01	8.9343e+02
439	4.8031e-01	2.6977e-01	8.2952e-02	-1.6039e-01	6.4946e+01
440	4.9631e-01	1.4091e-01	-3.7998e-03	-6.5049e-02	1.3604e+03
441	2.9234e-01	1.0580e-01	-2.5025e-02	-1.6310e-02	1.2829e+03
442	6.0299e-01	5.5589e-02	6.0225e-02	-1.4613e-01	1.7634e+03
443	1.9768e-01	7.1701e-02	-5.6790e-03	6.1294e-02	1.3326e+03
444	4.3234e-01	5.3963e-02	-6.8081e-02	3.3375e-02	1.7612e+03
445	1.0934e+00	2.1120e-01	1.7572e-01	6.2095e-04	4.1285e+02
446	3.4542e-02	8.7388e-02	-8.0144e-02	8.2572e-02	1.2044e+03
447	4.6887e-02	3.8860e-02	-8.4294e-03	7.5866e-02	1.5756e+03
448	2.0572e-01	-2.0689e-02	4.6173e-01	5.0085e-02	0.0000e+00
449	3.1115e-01	3.7783e-02	-6.4368e-02	-8.6344e-02	1.6994e+03
450	7.3681e-02	5.0284e-02	2.4202e-02	-5.2001e-02	1.3965e+03
451	6.5691e-02	1.3086e-01	9.2892e-02	6.5474e-02	6.6885e+02
452	2.9147e-01	-1.6045e-02	-3.4251e-02	5.6263e-02	6.1824e+02
453	1.8060e-01	7.3658e-02	-9.6611e-02	9.0208e-02	1.3325e+03
454	3.8980e-01	6.4414e-02	-1.2732e-02	5.3744e-02	1.7894e+03
455	1.4635e-01	2.0915e-01	-1.8784e-01	-1.6460e-01	0.0000e+00
456	2.0284e-01	1.4720e-01	-1.6598e-01	8.2436e-02	7.1843e+02
457	1.7477e-01	-1.2096e-03	-1.5426e-01	-1.8943e-01	1.3384e+03
458	1.5401e-01	-1.3525e-03	-1.4818e-01	-6.2271e-03	1.2973e+03
459	7.8369e-02	4.1818e-02	-2.1189e-02	6.1500e-02	1.4885e+03
460	8.7468e-02	1.2755e-01	-2.0091e-01	5.5351e-02	1.0037e+03
461	4.8229e-01	2.4213e-01	1.3626e-01	-1.5201e-01	3.6364e+02
462	6.1515e-02	2.1575e-01	4.5789e-01	-1.1107e-01	0.0000e+00
463	6.4486e-02	3.6484e-02	-9.8547e-02	-3.1750e-02	1.4693e+03
464	1.9615e-01	1.2616e-01	-8.0794e-02	6.8659e-02	1.2063e+03
465	2.7584e-03	1.4509e-01	-9.5481e-02	1.6685e-01	8.9858e+02
466	1.7842e-01	1.6622e-01	-1.2754e-01	-1.5596e-01	6.6088e+02
467	3.6192e-01	1.5174e-01	-1.9923e-02	-4.6835e-02	8.3556e+02
468	3.1221e-02	2.3063e-03	-1.0429e-02	1.9113e-01	1.2931e+03
469	5.1783e-01	2.3472e-01	9.3682e-02	-1.0287e-01	5.5690e+02
470	3.7047e-02	5.4611e-02	6.1120e-02	1.3361e-01	1.3993e+03
471	3.0406e-01	1.3932e-02	5.4119e-03	-6.0166e-02	1.3767e+03
472	2.0960e-01	1.8175e-01	-7.0845e-02	-5.0978e-02	5.4311e+02
473	3.1079e-01	2.3337e-01	-1.6805e-01	-7.7297e-02	5.0417e+01
474	1.1940e-01	9.5190e-02	-1.9190e-01	-6.7703e-02	1.4025e+03
475	2.0570e-02	1.9283e-01	2.0817e-01	2.5616e-01	8.6620e+02
476	5.6753e-01	2.8453e-02	-9.0533e-02	1.1977e-02	1.5146e+03
477	5.7610e-01	1.5208e-01	6.4034e-02	-8.8531e-02	1.4601e+03
478	3.6342e-01	2.4466e-01	-1.4010e-01	-1.1194e-01	7.3454e+01
479	4.8342e-01	1.9242e-01	7.6676e-02	-9.9370e-02	8.2409e+02
480	3.1933e-01	2.3408e-01	-1.0281e-01	-1.1868e-01	5.9368e+01
481	5.8929e-01	2.0092e-01	1.6785e-01	-1.3087e-01	9.2064e+02
482	5.3985e-01	1.8027e-01	1.2366e-01	-6.7603e-02	1.0369e+03
483	1.9033e-01	6.3784e-03	-2.2508e-03	1.2129e-02	1.7800e+03
484	2.7213e-01	1.9501e-01	-1.3134e-01	-4.4516e-02	3.9868e+02
485	2.3727e-01	1.0183e-02	-3.2536e-02	9.6749e-02	1.7332e+03
486	4.0586e-01	2.2033e-01	-3.0769e-02	-1.6073e-01	4.0026e+02
487	5.7712e-01	2.7149e-01	1.8502e-01	-1.2956e-01	2.3582e+02
488	5.9429e-01	2.2085e-01	1.5546e-01	-1.7329e-01	7.2591e+02
489	3.4755e-01	5.5592e-02	-9.3416e-02	4.3223e-02	1.5839e+03
490	4.6793e-02	1.4792e-01	-2.2612e-01	1.6221e-01	8.3602e+02
491	1.2542e-01	1.7655e-01	-2.6409e-01	1.1112e-01	4.4112e+02
492	3.2775e-02	1.6571e-01	6.9055e-02	2.0379e-01	5.1078e+02
493	2.5506e-01	1.9552e-01	-1.0085e-01	-1.8218e-02	3.7535e+02
494	1.6943e-01	1.4656e-01	-1.0064e-01	5.7777e-02	8.3246e+02
495	2.1086e-01	1.9176e-01	-9.3719e-02	-3.3924e-02	4.2386e+02
496	7.5765e-01	3.0196e-01	1.3611e-01	-9.0893e-02	4.8800e+02
497	1.0090e-01	1.6640e-01	-2.1551e-01	1.2328e-01	5.8513e+02