variables="k","x","y","vx","vy","pressure"
zone i=8064 j=1
0	3.8817e-01	1.7457e-01	6.2303e-02	-7.7284e-02	9.9734e+02
1	5.8484e-01	2.2053e-01	2.2450e-01	-1.5785e-01	7.4684e+02
2	3.1348e-02	1.6342e-01	-8.3535e-02	1.7959e-01	1.0733e+02
3	4.3184e-01	-4.0182e-03	-2.1681e-01	6.9952e-02	1.3206e+03
4	3.7792e-03	1.9364e-01	-3.3496e-01	4.3100e-01	0.0000e+00
5	7.2789e-01	2.1803e-01	1.7767e-01	7.2152e-02	7.0089e+02
6	1.3006e-01	1.8282e-01	-1.3918e-01	6.2376e-02	-1.6102e+03
7	1.8267e-01	9.3858e-02	-5.3581e-03	-4.5835e-02	1.0566e+03
8	-7.6315e-03	1.9630e-02	3.6459e-02	1.2259e-01	8.6232e+02
9	3.6202e-01	2.4547e-01	-2.3930e-03	-9.4498e-02	2.7011e+02
10	1.4682e-03	1.0062e-01	-1.1355e-01	2.0980e-02	7.3987e+02
11	4.4145e-01	2.4906e-01	1.8188e-01	-4.3768e-02	3.3397e+02
12	3.7373e-01	2.4422e-01	1.7497e-02	-1.4411e-01	3.0960e+02
13	5.7050e-01	2.6869e-01	2.7183e-01	-6.2637e-02	3.8123e+02
14	6.9575e-01	8.5590e-02	7.6890e-02	3.0129e-03	1.6508e+03
15	5.5727e-01	3.0635e-01	3.1527e-01	-1.1382e-01	5.3701e+01
16	2.8749e-01	2.1102e-01	-6.2943e-03	-9.8939e-02	3.9735e+02
17	8.3559e-01	2.1719e-01	1.3346e-01	1.3038e-01	6.2171e+02
18	1.1465e+00	2.0027e-01	-4.0670e-02	1.6869e-02	4.0820e+02
19	1.5591e-02	2.1314e-01	-2.1365e-01	5.1984e-01	0.0000e+00
20	5.4336e-01	2.6455e-01	3.1122e-01	-1.1320e-01	4.1737e+02
21	3.2818e-01	2.2195e-01	3.3156e-02	-1.6154e-01	4.4915e+02
22	4.0222e-01	2.9897e-02	-7.0073e-03	-7.4313e-02	1.9010e+03
23	2.3575e-01	1.8833e-01	2.9897e-02	-1.9758e-01	3.8815e+02
24	7.2696e-01	8.3612e-02	6.4043e-02	-1.4580e-02	1.4660e+03
25	-2.2924e-03	1.3932e-01	9.3885e-02	4.3520e-01	-2.1378e+02
26	1.8804e-01	1.7396e-02	1.0129e-01	2.8794e-02	1.3484e+03
27	1.6901e-01	8.1596e-02	-6.3381e-02	4.5802e-02	9.7749e+02
28	3.2091e-01	-3.0032e-04	1.0528e-01	-4.8155e-02	1.6670e+03
29	4.7359e-01	1.8178e-01	1.0378e-01	-5.2677e-03	1.0373e+03
30	-3.8253e-03	3.5458e-02	3.7251e-01	2.3665e-02	8.8969e+02
31	2.0999e-01	4.7204e-02	-9.7266e-03	-4.1039e-02	1.2982e+03
32	2.9638e-01	1.7815e-01	1.3025e-02	-6.9907e-02	7.7116e+02
33	6.1941e-01	2.6240e-01	2.8583e-01	-1.5548e-01	4.3391e+02
34	7.1391e-01	3.9033e-02	1.3768e-01	-6.2100e-02	1.5780e+03
35	8.4616e-01	2.0500e-01	4.6262e-02	1.3622e-01	8.3672e+02
36	2.8226e-01	9.3534e-02	3.5929e-02	-3.6873e-02	1.4578e+03
37	1.1213e+00	2.2543e-01	-6.1801e-02	-9.9445e-03	9.6961e+01
38	7.4066e-01	6.2858e-02	-1.4914e-02	-1.0129e-01	1.6611e+03
39	8.3859e-01	2.4747e-01	1.2512e-01	1.8249e-01	4.6953e+02
40	4.4159e-01	2.1196e-01	1.0047e-01	2.6582e-02	7.1727e+02
41	1.4893e-01	1.4658e-01	-1.3493e-01	7.2383e-02	1.5510e+03
42	3.9432e-01	1.0294e-02	1.8860e-02	-2.6665e-02	1.9759e+03
43	8.0871e-01	1.7910e-01	8.2289e-02	6.4639e-02	9.2321e+02
44	4.6377e-01	2.1009e-01	1.5812e-01	2.2245e-02	7.5762e+02
45	1.1005e+00	2.3493e-01	-3.5850e-02	4.9948e-02	6.9728e+01
46	2.4870e-01	1.9811e-01	2.8312e-03	-8.0460e-02	3.5882e+02
47	4.8095e-01	1.5752e-01	2.2431e-01	2.3828e-02	1.1630e+03
48	2.3868e-01	1.2377e-01	5.2913e-03	-1.1012e-01	1.0130e+03
49	5.7761e-01	2.3945e-01	3.1939e-01	-1.2086e-01	5.5633e+02
50	9.1129e-01	1.9095e-01	6.5248e-03	1.1222e-01	1.0064e+03
51	1.5541e-01	1.8467e-01	-1.1035e-01	-4.0788e-02	5.6828e+02
52	1.6024e-01	5.4308e-02	-1.9852e-02	2.0689e-02	1.0355e+03
53	3.5190e-02	1.3568e-01	-3.5126e-01	1.8368e-01	1.8134e+02
54	1.8089e-01	1.5720e-01	-4.6855e-02	6.9001e-02	9.3868e+02
55	2.3663e-01	1.1276e-01	-5.3613e-03	2.6194e-02	1.1174e+03
56	6.3055e-01	3.1289e-01	3.2262e-01	-4.9161e-02	1.2957e+02
57	4.5294e-01	2.8315e-01	2.1275e-01	-1.5182e-01	6.4090e+01
58	1.2360e+00	1.9611e-01	-4.9795e-02	-3.4174e-02	2.0511e+02
59	4.5154e-01	1.5675e-01	7.7738e-02	6.4086e-02	1.1136e+03
60	1.1345e-01	2.1090e-01	7.6326e-03	-3.8187e-01	0.0000e+00
61	8.1927e-01	3.0882e-01	1.2954e-01	1.5855e-01	3.0146e+02
62	8.1539e-01	5.1640e-02	1.9492e-02	-3.4206e-02	1.8051e+03
63	2.4287e-01	2.0732e-01	-3.1677e-02	-6.7455e-02	2.8545e+02
64	3.4208e-01	-2.2801e-02	3.9717e-01	1.1929e-02	0.0000e+00
65	-1.2349e-02	-2.2856e-03	-1.1030e-01	1.0262e-02	0.0000e+00
66	2.5966e-02	-2.0588e-02	3.2501e-01	1.6695e-01	2.2336e+02
67	1.4428e-01	1.7360e-01	2.8984e-03	-1.3689e-01	1.7489e+03
68	1.0476e-01	2.1427e-02	-1.5890e-02	5.7791e-02	9.5127e+02
69	1.4428e-01	1.1422e-01	-4.4738e-02	8.0236e-02	9.6050e+02
70	3.3437e-02	6.2696e-02	-4.3293e-02	-5.9804e-02	6.1217e+02
71	4.7544e-01	-4.1706e-03	-9.9999e-02	7.1549e-02	2.1522e+03
72	6.6668e-01	1.1213e-01	1.2127e-01	7.1660e-02	1.5242e+03
73	2.2886e-01	-3.3491e-03	-8.8173e-02	1.9702e-01	1.5469e+03
74	1.8991e-01	4.6867e-02	1.1762e-02	4.0521e-02	1.1566e+03
75	1.1582e+00	2.1598e-01	-2.9102e-02	-1.7309e-02	1.1029e+02
76	5.6874e-01	1.0346e-01	-4.6929e-02	-3.0509e-02	1.9495e+03
77	4.1616e-01	1.5555e-01	1.4220e-01	-1.4714e-02	1.1081e+03
78	5.5160e-01	2.4610e-01	2.2715e-01	-1.3931e-01	5.6082e+02
79	1.3151e-01	1.3003e-01	-1.5043e-01	-4.9691e-02	6.5622e+02
80	4.1656e-01	3.8518e-02	7.3066e-02	-5.1224e-02	1.7403e+03
81	5.2868e-01	1.3155e-01	1.0073e-01	-1.1215e-01	1.5346e+03
82	2.0281e-01	1.4096e-01	3.6151e-02	2.6249e-02	5.2087e+02
83	1.1394e+00	1.4761e-01	-1.1828e-01	2.4653e-02	1.2200e+03
84	6.5619e-02	1.3037e-01	2.0959e-01	-1.1217e+00	9.0563e+02
85	8.5898e-01	3.4140e-01	1.6405e-01	3.2561e-01	0.0000e+00
86	2.1733e-02	6.6831e-02	7.8822e-02	1.5446e-01	5.5323e+02
87	1.0090e-01	1.2979e-01	-1.2742e-01	4.2366e-02	3.7894e+01
88	6.6355e-02	1.6234e-01	-2.7184e-01	-7.0428e-02	-7.6663e+01
89	5.6089e-01	1.4775e-01	1.5539e-01	-1.4610e-02	1.3979e+03
90	6.7301e-01	2.6234e-01	1.8558e-01	5.8574e-02	4.0407e+02
91	5.1835e-01	2.2174e-01	1.7065e-01	-1.0046e-01	8.0540e+02
92	2.2527e-01	9.4792e-02	2.7196e-02	1.5645e-02	1.1919e+03
93	4.8561e-01	1.9658e-01	1.3719e-01	4.8692e-02	9.0006e+02
94	9.4511e-01	2.5865e-01	1.2188e-02	1.4541e-01	3.1710e+02
95	1.1609e-01	5.3932e-02	2.5254e-03	-9.1000e-02	8.2962e+02
96	7.4798e-01	1.9557e-02	-2.6498e-02	-4.6096e-02	1.6715e+03
97	4.6363e-01	2.8751e-01	2.2635e-01	-1.1918e-01	0.0000e+00
98	2.6934e-01	1.6773e-01	1.0977e-03	-4.0192e-02	7.5363e+02
99	8.0622e-01	2.5846e-01	1.4238e-01	1.4526e-01	5.4970e+02
100	3.0863e-01	1.1972e-02	-4.9344e-02	-9.2337e-02	1.3484e+03
101	5.0913e-01	2.6476e-01	2.7335e-01	-7.3393e-03	3.3515e+02
102	8.7942e-01	2.9994e-01	-6.0059e-03	2.3348e-01	2.7448e+02
103	1.0360e+00	1.7674e-01	-6.4783e-02	2.6837e-02	9.3892e+02
104	9.1737e-02	1.3583e-01	-1.1998e-01	1.2771e-01	2.8018e+02
105	6.4599e-01	2.8455e-01	2.4217e-01	1.3161e-02	2.2562e+02
106	7.1766e-02	1.6752e-01	-3.8688e-01	1.3004e-01	-4.3908e+02
107	6.2111e-01	2.8743e-01	3.0031e-01	-3.4274e-02	2.9951e+02
108	3.4163e-01	1.0939e-01	5.4526e-02	-1.3271e-01	1.4908e+03
109	7.7628e-01	3.0452e-01	1.8651e-01	2.0485e-01	3.1587e+02
110	1.1342e+00	1.7171e-01	-4.8620e-04	4.0974e-02	8.3484e+02
111	9.3376e-01	2.9706e-01	-1.3679e-02	1.8890e-01	7.3862e+00
112	2.2128e-02	1.7094e-01	3.7069e-01	-7.5029e-02	1.8064e+02
113	4.4933e-02	2.8026e-02	1.1560e-01	-1.9256e-01	9.7904e+02
114	4.5342e-01	2.1869e-01	1.1814e-01	-5.2728e-02	6.2376e+02
115	2.6024e+00	5.1603e-02	2.5157e-02	-1.4101e-02	1.5644e+03
116	8.8727e-01	1.8582e-01	5.0564e-02	8.7208e-02	1.0184e+03
117	1.1049e+00	1.4133e-01	-1.0021e-01	4.5350e-02	1.2760e+03
118	6.6063e-01	2.8477e-01	2.7128e-01	-3.4961e-02	3.3891e+02
119	5.1414e-01	2.6859e-01	2.7835e-01	-9.2822e-02	3.2583e+02
120	7.9921e-01	2.5395e-01	1.5051e-01	1.4539e-01	5.5701e+02
121	3.9031e-01	1.8384e-01	4.3392e-02	-4.4792e-02	8.9667e+02
122	3.8740e-01	2.6874e-01	3.8795e-02	-8.5800e-02	2.8494e+01
123	4.8082e-01	2.2715e-01	2.0275e-01	-4.3549e-02	5.0169e+02
124	2.5685e-01	2.2007e-01	-8.2350e-02	3.6235e-02	1.2153e+02
125	4.4780e-01	5.7622e-02	-3.2914e-02	1.3897e-02	1.6594e+03
126	3.2951e-01	2.1805e-01	2.6934e-02	-9.9248e-02	5.1064e+02
127	4.4017e-01	2.4457e-01	1.4276e-01	-6.8196e-02	3.7475e+02
128	2.3714e-01	8.5002e-02	-1.7288e-02	9.9472e-03	1.2698e+03
129	-5.1039e-03	8.0516e-03	1.1008e-01	-1.6163e-01	1.3405e+03
130	7.3960e-01	3.4538e-01	2.6058e-01	1.4805e-01	0.0000e+00
131	4.2228e-01	2.4497e-01	9.4808e-02	-1.4298e-01	3.3576e+02
132	2.3573e-01	2.3479e-02	-1.3847e-01	3.6761e-02	1.5756e+03
133	3.1263e-01	-5.5915e-03	1.4738e-02	-1.9867e-01	1.3237e+03
134	4.4554e-02	7.4821e-02	-5.9355e-02	8.4111e-02	5.4111e+02
135	5.2356e-02	6.7123e-02	6.1693e-02	1.3567e-01	7.8260e+02
136	2.3808e-01	2.1008e-01	-2.3356e-02	3.6385e-02	2.4894e+02
137	4.6052e-01	1.5669e-01	1.1570e-01	-1.1524e-01	1.1912e+03
138	5.0937e-01	2.5132e-01	2.8371e-01	1.6187e-03	4.1555e+02
139	4.7803e-01	2.5677e-01	2.6242e-01	-5.7594e-02	2.8552e+02
140	3.7429e-01	1.8250e-01	4.8433e-02	-2.9684e-02	8.8537e+02
141	3.5771e-01	1.3608e-02	1.6694e-02	7.2862e-02	2.0480e+03
142	1.1041e-01	1.4641e-01	-1.9559e-01	-1.0132e-01	3.9476e+02
143	2.1676e-01	1.6485e-02	-1.9638e-01	1.1975e-01	1.2050e+03
144	3.1420e-01	1.4657e-01	6.8467e-02	-7.7230e-02	1.1325e+03
145	3.5142e-01	2.0818e-01	1.5324e-03	-4.2356e-02	6.3741e+02
146	6.6970e-01	3.3144e-01	2.4894e-01	9.3568e-04	-6.7362e+00
147	7.4287e-02	1.7320e-01	-4.1272e-01	2.1716e-01	-5.3556e+02
148	1.4201e+00	7.7824e-02	-6.9313e-02	3.7020e-02	1.3966e+03
149	7.5358e-01	1.3354e-01	8.9440e-02	7.0851e-02	1.2169e+03
150	4.7997e-01	7.0700e-02	5.5194e-02	6.9446e-02	1.7982e+03
151	5.1490e-01	2.8187e-01	2.5483e-01	-2.1974e-02	2.0807e+02
152	2.0528e-01	2.3220e-01	5.0863e-02	-1.2076e-01	0.0000e+00
153	6.1741e-01	9.5611e-02	4.3468e-02	1.6271e-02	1.7984e+03
154	7.4186e-01	1.5683e-01	1.4632e-01	-1.1576e-02	9.6556e+02
155	1.4212e-01	2.9999e-02	3.4902e-02	-2.6520e-02	1.0445e+03
156	3.5616e-01	1.0618e-01	5.4074e-02	-3.5132e-02	1.4645e+03
157	5.4826e-01	2.7262e-01	2.7168e-01	-1.2688e-01	3.1071e+02
158	1.1469e+00	1.5806e-01	-6.2975e-02	-2.6344e-02	1.0629e+03
159	3.9887e-01	4.7445e-02	5.9222e-02	-9.7428e-03	1.8081e+03
160	6.5378e-01	5.7438e-02	1.0241e-01	4.1737e-03	1.8818e+03
161	9.2764e-01	2.0194e-01	-3.8907e-02	8.7622e-02	8.5222e+02
162	2.4844e-01	1.8099e-01	7.6422e-04	-2.5964e-02	5.6239e+02
163	3.5793e-01	1.4967e-01	2.3888e-02	-6.4449e-02	1.1028e+03
164	7.1216e-01	1.5441e-01	1.1350e-01	3.9466e-02	1.0616e+03
165	4.9853e-01	2.9707e-01	2.0638e-01	-5.6156e-02	-6.2619e+00
166	3.0001e-01	2.1832e-01	-6.5710e-02	-1.5878e-01	4.0774e+02
167	4.7996e-01	2.4402e-01	2.8745e-01	-5.0760e-02	4.3120e+02
168	2.6808e-01	2.5473e-02	-2.3227e-02	-8.3480e-02	1.4980e+03
169	1.3539e-01	5.8928e-02	6.6317e-02	-9.0240e-03	7.9843e+02
170	1.7041e-02	4.0360e-02	4.8512e-02	-1.5590e-02	7.8292e+02
171	4.5182e-01	1.6889e-02	-1.0883e-01	-1.3642e-01	1.6592e+03
172	5.0102e-01	1.8557e-01	1.3040e-01	-1.2968e-02	1.0755e+03
173	1.9426e-01	1.4361e-01	-2.3422e-02	-7.7537e-01	5.4423e+02
174	6.5110e-01	2.5325e-01	3.0128e-01	-1.1757e-01	4.9111e+02
175	4.3993e-01	1.0996e-02	-3.7469e-02	4.6613e-02	1.7578e+03
176	9.1194e-01	1.4900e-01	6.3206e-03	4.6804e-02	1.3598e+03
177	1.0684e-02	7.4312e-02	-1.0390e-01	2.3754e-02	5.4528e+02
178	2.7798e-01	1.1639e-01	9.3670e-02	-5.8394e-02	1.2630e+03
179	6.7286e-01	2.6193e-01	2.5348e-01	2.1245e-02	4.0315e+02
180	3.1819e-01	2.0847e-01	2.5282e-02	-1.1726e-01	4.9787e+02
181	2.9331e-01	1.9168e-01	3.4883e-02	-3.3555e-02	6.4855e+02
182	1.2045e-01	1.3831e-01	-2.2192e-01	-3.0602e-02	7.9167e+02
183	1.1842e-01	1.5148e-01	-1.7538e-01	7.7680e-02	4.6683e+02
184	6.7616e-01	2.2639e-01	2.1469e-01	-7.1712e-02	6.1638e+02
185	3.7616e-01	1.2770e-01	4.1728e-02	-4.7407e-02	1.3592e+03
186	1.1321e+00	1.8614e-01	-4.4704e-02	-2.1703e-02	6.3928e+02
187	5.5726e-01	2.0217e-01	2.1645e-01	-1.2118e-01	9.1980e+02
188	1.9829e-01	6.7087e-02	-3.5517e-02	-9.7655e-02	1.2000e+03
189	7.9765e-01	2.0133e-01	1.3128e-01	5.2175e-02	8.0292e+02
190	4.8189e-01	5.3910e-02	-5.8584e-02	3.8782e-02	1.9377e+03
191	4.4318e-01	1.7005e-01	1.0582e-01	-3.4771e-02	1.1399e+03
192	1.0697e-01	8.5789e-02	-2.7237e-02	-4.7667e-01	6.0964e+02
193	6.6671e-02	1.3224e-02	-7.5306e-02	-2.7262e-02	7.8485e+02
194	9.6047e-02	1.5507e-01	-2.3129e-01	1.2958e-01	2.4986e+02
195	3.4565e-01	3.0792e-02	-3.1809e-02	-7.8098e-03	1.8180e+03
196	-7.3748e-03	4.9908e-02	2.1554e-01	-3.5549e-02	1.0561e+03
197	4.3240e-02	1.0224e-01	-2.4820e-02	1.0287e-01	5.0472e+02
198	6.1079e-02	8.8901e-02	-9.3726e-03	1.7770e-01	-2.7668e+02
199	2.5961e-01	4.4363e-02	-4.6449e-02	6.5741e-02	1.3560e+03
200	2.9833e-02	1.1234e-01	-2.8846e-01	2.8610e-01	-8.1918e+01
201	1.7109e-02	2.9110e-02	-1.6076e-01	-6.6031e-02	6.2001e+02
202	1.5841e-01	3.0399e-02	5.8934e-02	-4.6623e-02	1.2184e+03
203	2.6486e-01	3.2320e-02	-1.4583e-01	-4.1139e-02	1.4577e+03
204	3.6743e-02	5.4796e-02	6.2068e-03	-1.2282e-02	6.3893e+02
205	4.7153e-01	2.2729e-01	7.8853e-02	-5.5590e-02	5.9696e+02
206	4.0979e-01	2.4366e-01	1.5058e-01	-5.6375e-02	3.9298e+02
207	2.7693e-01	2.2396e-02	-2.0120e-02	4.1677e-02	1.4307e+03
208	4.8246e-02	9.8260e-02	1.7566e-01	1.5587e-01	1.1567e+03
209	1.3890e-01	2.0609e-01	-2.4625e-01	-2.9265e-01	1.5118e+03
210	6.5221e-01	1.4524e-01	1.8401e-01	-4.6279e-02	1.2947e+03
211	3.5011e-01	2.5473e-01	3.5252e-02	-4.8528e-02	3.7327e+01
212	2.5329e-02	9.8043e-02	-3.0204e-01	-2.1862e-01	2.3773e+02
213	3.7859e-01	2.5445e-02	3.0610e-02	-2.3148e-02	2.0205e+03
214	8.5657e-02	9.9233e-02	2.1376e-01	-6.8440e-01	-2.1334e+01
215	2.1847e-01	2.3144e-01	-7.0317e-02	-1.4365e-01	0.0000e+00
216	7.3010e-01	2.6552e-01	2.2105e-01	1.6710e-01	4.1948e+02
217	9.5989e-02	6.5688e-02	3.5024e-02	-2.0216e-02	6.7524e+02
218	5.3639e-01	2.3246e-01	2.4656e-01	-7.6936e-02	6.7795e+02
219	4.6354e-01	4.0961e-02	-5.7038e-02	2.2602e-02	1.6942e+03
220	3.1860e-01	5.9901e-02	1.0487e-01	-1.7051e-02	1.7462e+03
221	3.7277e-01	1.3271e-01	5.1484e-02	-6.6201e-02	1.2765e+03
222	1.7206e-01	2.0292e-01	-1.1550e-01	-8.1831e-02	5.6545e+02
223	3.1356e-01	8.1724e-02	7.1158e-02	-2.1250e-02	1.5490e+03
224	2.1054e-01	1.4815e-02	-3.2458e-02	-2.3880e-02	1.3432e+03
225	6.2195e-01	3.2423e-01	2.2279e-01	-1.3921e-01	3.4367e+01
226	1.2538e-01	2.0126e-01	-2.8900e-01	-3.4950e-02	1.6018e+03
227	1.0655e+00	2.2334e-01	-2.5654e-02	1.1134e-02	3.2538e+02
228	5.4701e-01	6.1091e-02	1.3393e-02	-1.0507e-01	2.3935e+03
229	3.3074e-01	1.1876e-01	7.6891e-02	-5.2927e-02	1.3892e+03
230	2.3228e-01	2.2175e-01	7.2697e-02	-5.0180e-02	1.9631e+02
231	6.0854e-02	1.2174e-01	-2.1840e-01	-2.4337e-01	9.4399e+00
232	1.2421e-01	1.3181e-01	-1.6083e-01	1.0159e-01	7.7540e+02
233	7.2717e-01	1.3761e-01	1.5398e-01	7.5091e-02	1.1346e+03
234	1.2160e+00	1.3298e-01	-1.5348e-03	-2.3407e-02	1.3869e+03
235	3.7768e-01	2.3164e-01	9.5821e-02	-1.4433e-01	4.2027e+02
236	2.3152e-01	1.3352e-01	-8.7459e-04	-2.6191e-03	8.8339e+02
237	7.1983e-01	1.1960e-01	1.4704e-01	2.6100e-02	1.2576e+03
238	1.4238e-01	3.9354e-02	2.6023e-02	4.9921e-02	1.0079e+03
239	7.1427e-01	2.8175e-01	2.7540e-01	6.5163e-02	3.0138e+02
240	4.8120e-01	1.4790e-01	1.0720e-01	6.0313e-02	1.2804e+03
241	5.7308e-01	2.6656e-01	3.1433e-01	-2.3480e-01	4.1091e+02
242	8.2327e-01	1.7513e-01	4.2633e-02	9.7936e-02	9.4891e+02
243	7.9292e-01	1.5039e-01	-1.2004e-02	-2.4387e-02	1.1034e+03
244	3.4410e-01	2.5913e-01	2.8266e-02	-1.3597e-01	0.0000e+00
245	2.0179e-01	1.4589e-01	-3.2985e-02	2.4337e-02	3.0061e+01
246	4.6890e-01	1.7319e-01	3.9267e-02	-7.0314e-02	1.1348e+03
247	6.6088e-01	6.6423e-02	1.2910e-01	9.9621e-02	1.8371e+03
248	1.2660e+00	1.9271e-01	7.0970e-03	-1.8720e-02	1.6268e+02
249	2.1351e-01	9.2063e-02	7.6919e-03	8.1909e-02	1.1268e+03
250	1.2049e-01	1.1048e-01	-9.1970e-02	3.4081e-02	6.5502e+02
251	4.6749e-01	2.4379e-01	2.4527e-01	-7.5331e-02	4.3648e+02
252	1.2489e+00	1.8017e-01	-1.4376e-02	-1.4584e-02	4.3658e+02
253	1.7869e-01	2.1840e-01	-4.2840e-02	-1.4137e-01	1.0408e+02
254	2.8988e-01	4.7904e-02	3.7940e-02	3.4352e-02	1.5440e+03
255	3.6530e-01	7.7113e-02	3.5988e-02	-2.0969e-02	1.7091e+03
256	5.5814e-01	2.1794e-01	2.6018e-01	-1.1514e-01	7.3126e+02
257	1.4910e-01	-1.1408e-03	-6.6048e-02	-2.2213e-02	1.1056e+03
258	1.6094e-01	2.2636e-01	-5.5981e-02	-1.5855e-01	0.0000e+00
259	6.2446e-02	6.8014e-02	-5.6822e-02	2.2638e-02	9.9617e+02
260	2.9409e-01	2.4249e-01	-2.7966e-02	-1.5239e-01	9.7444e+01
261	1.3279e-01	6.8170e-02	-9.1246e-02	7.6011e-02	8.5112e+02
262	3.6019e-01	1.2401e-01	2.2156e-03	-8.9362e-02	1.3899e+03
263	3.3509e-02	1.8016e-01	-2.6971e-01	2.4330e-01	1.7990e+02
264	2.0816e-02	1.9005e-01	-3.2889e-01	3.4387e-01	1.1479e+02
265	-2.9633e-04	1.8064e-01	4.3285e-02	3.0484e-01	4.8556e+02
266	3.4697e-02	1.3601e-01	-2.7452e-01	1.4149e-01	2.3877e+02
267	3.0973e-02	4.0411e-02	1.3998e-02	-1.2102e-01	9.4202e+02
268	2.5413e-01	1.5953e-02	1.3709e-01	-3.6304e-02	1.8544e+03
269	6.2279e-01	2.8569e-01	3.3811e-01	-1.2600e-01	3.3004e+02
270	7.9574e-02	1.5541e-01	-2.8068e-01	-5.6992e-02	3.6517e+02
271	1.4478e-02	1.8387e-01	5.6578e-01	9.3540e-02	-7.6176e+02
272	3.7217e-01	1.6619e-01	6.9919e-02	-6.0406e-02	1.0298e+03
273	4.1009e-02	1.1498e-01	-3.3804e-01	2.1787e-01	-2.6079e+02
274	5.0400e-01	1.4645e-01	9.9119e-02	1.3820e-02	1.3452e+03
275	9.1872e-02	1.1383e-01	-7.4032e-02	2.8569e-02	1.6373e+02
276	5.6286e-01	2.8860e-02	-3.0122e-01	-1.5924e-01	1.3564e+03
277	6.2776e-01	1.5006e-01	1.0344e-01	-8.8848e-02	1.2363e+03
278	1.8771e-01	1.1760e-01	-5.1069e-02	-1.7263e-02	9.0586e+02
279	5.1431e-01	2.3599e-01	2.4501e-01	-6.5644e-02	6.4316e+02
280	6.3787e-01	3.6789e-02	-4.6529e-02	1.8405e-01	2.0353e+03
281	5.6756e-01	2.9503e-01	2.4417e-01	-1.2276e-01	1.6952e+02
282	5.4306e-01	2.4117e-01	2.1394e-01	-1.2970e-01	6.7136e+02
283	1.5056e-01	1.6385e-01	-6.6726e-02	-8.8619e-03	-3.3856e+02
284	4.8894e-01	2.5556e-01	2.3173e-01	-6.4757e-02	3.7304e+02
285	5.8477e-02	1.0719e-01	-4.1718e-02	-2.5361e-02	4.8607e+02
286	4.5615e-02	1.3899e-01	-1.3594e-01	-1.0287e-02	6.5704e+01
287	6.6984e-02	1.5797e-01	-7.9187e-02	-4.9064e-02	5.1254e+02
288	9.8832e-01	1.7451e-01	-1.1472e-01	5.9623e-02	1.1646e+03
289	8.1507e-03	5.8080e-02	1.5298e-02	-6.1585e-02	5.0397e+02
290	5.0564e-01	2.0670e-01	1.7066e-01	-3.1988e-02	8.5476e+02
291	1.4704e-01	1.0414e-01	-5.5833e-02	-4.4814e-02	8.8041e+02
292	4.6756e-01	1.1080e-01	1.0318e-01	-1.8823e-02	1.4604e+03
293	9.2361e-02	1.8100e-01	-3.6802e-01	-2.6669e-01	1.5867e+01
294	5.1375e-01	3.1743e-02	1.0410e-01	-1.6739e-02	2.0849e+03
295	2.4906e-01	7.3045e-02	3.6062e-02	-6.9072e-03	1.4272e+03
296	4.3694e-01	1.9990e-01	5.2318e-02	1.7825e-02	7.8702e+02
297	2.5843e-01	1.2412e-01	-2.7516e-02	-1.6084e-01	1.1670e+03
298	5.1926e-01	2.1380e-01	2.0567e-01	-2.2466e-02	8.4532e+02
299	1.8577e-01	9.3266e-02	-6.3649e-02	2.0740e-02	1.0695e+03
300	1.0926e-01	1.3261e-01	-1.0717e-01	1.5058e-01	3.2785e+02
301	6.0441e-01	3.1954e-01	3.3297e-01	-6.0979e-02	9.2813e+01
302	1.6186e-01	1.6867e-01	-1.5800e-01	-1.9909e-02	6.1925e+02
303	1.7578e-01	1.0091e-01	5.1288e-02	-3.4828e-02	9.6376e+02
304	8.5201e-01	2.7430e-01	1.0799e-01	2.3783e-01	4.0647e+02
305	3.2949e-01	2.5453e-01	-4.7724e-02	-1.4811e-01	2.0605e+01
306	7.4304e-01	2.0574e-01	1.6670e-01	1.0054e-01	7.4207e+02
307	2.0178e+00	1.5141e-01	-1.6205e-03	-7.7767e-02	5.8577e+02
308	5.9467e-01	8.4228e-02	6.3465e-02	-6.4712e-03	2.0769e+03
309	1.0942e-01	2.0133e-01	-6.0135e-02	-2.0639e-01	2.1176e+03
310	5.2948e-01	4.5493e-02	1.5250e-01	-1.3994e-01	2.4662e+03
311	2.1077e-01	3.8967e-02	8.0579e-02	6.1654e-02	1.4149e+03
312	6.7839e-01	1.3549e-01	1.3584e-01	-7.1093e-02	1.3647e+03
313	3.9195e-02	1.8877e-01	-2.3508e-01	3.3212e-01	0.0000e+00
314	8.3497e-02	1.2950e-01	-1.9530e-02	-7.4015e-02	1.0576e+03
315	5.1846e-02	1.2809e-01	-3.3610e-01	2.1325e-01	-1.1699e+03
316	3.7308e-01	2.1773e-01	5.8715e-02	-1.0585e-01	5.4901e+02
317	1.5270e-01	9.2651e-02	-4.1650e-02	5.5982e-02	8.8292e+02
318	7.9924e-01	3.1445e-01	1.9925e-01	2.1177e-01	2.3853e+02
319	3.6211e-01	2.0200e-01	1.4250e-02	-4.6231e-02	6.9260e+02
320	1.2026e-01	4.4824e-02	9.6639e-02	-2.2128e-02	1.0118e+03
321	3.2805e-01	1.3251e-01	5.3677e-02	-1.0756e-01	1.2740e+03
322	9.9118e-02	8.3850e-02	-7.7335e-02	1.5133e-01	4.9104e+02
323	2.4295e-01	1.9491e-01	-2.9968e-02	4.0657e-02	2.7972e+02
324	5.3555e-01	-1.5667e-02	1.8230e-01	-1.2930e-01	2.1155e+03
325	1.8695e-02	6.8692e-02	-4.7859e-02	-8.0960e-02	7.9399e+02
326	8.1319e-02	1.4827e-01	-2.4170e-01	1.0465e-01	4.1442e+02
327	1.5324e-01	7.7108e-02	1.6122e-03	-7.3617e-02	8.6577e+02
328	1.0770e-01	1.1585e-01	-1.0928e-01	-2.2251e-01	1.1433e+03
329	4.7761e-02	8.9254e-02	-1.4005e-01	2.4395e-01	1.4443e+02
330	3.0637e-01	1.2999e-01	-6.3750e-03	-8.0757e-02	1.2539e+03
331	1.2425e-01	3.6122e-02	-6.7152e-03	8.0579e-02	8.9321e+02
332	2.1804e-01	4.6053e-02	-6.0632e-02	-5.8267e-03	1.3530e+03
333	4.2096e-02	4.1676e-02	-7.7441e-02	-5.7321e-02	9.4873e+02
334	7.8502e-02	6.1764e-02	9.5050e-02	1.9672e-02	7.4841e+02
335	1.2024e-01	2.1569e-01	-1.1059e-01	-9.8899e-02	0.0000e+00
336	2.2342e-01	1.1533e-01	-7.7989e-03	-2.3766e-04	1.0349e+03
337	2.3364e-01	1.0632e-01	5.7161e-02	3.6112e-02	1.1637e+03
338	8.8639e-01	2.6626e-01	5.8322e-02	1.4563e-01	3.9621e+02
339	4.2394e-02	1.4774e-01	-1.6686e-01	-5.8728e-03	-2.8937e+01
340	2.5241e-01	1.4570e-01	3.8687e-02	-4.0664e-02	8.8470e+02
341	5.1380e-01	2.9004e-01	2.9260e-01	-7.7193e-02	1.5714e+02
342	2.2351e+00	1.4613e-01	1.0352e-01	-4.4973e-02	7.9295e+02
343	4.7862e-01	5.4818e-02	1.1208e-01	-1.3982e-02	1.9733e+03
344	7.4633e-01	2.6712e-01	2.2014e-01	7.5667e-02	4.3779e+02
345	5.9102e-01	1.6244e-01	1.5980e-01	-1.2692e-01	1.2178e+03
346	1.4446e+00	9.5886e-02	-6.5227e-02	1.2596e-02	1.1755e+03
347	3.0230e-01	3.1072e-02	-8.3238e-03	-5.8845e-02	1.6892e+03
348	5.0724e-01	2.3183e-01	2.4691e-01	3.2587e-02	6.1451e+02
349	2.8588e-01	2.3127e-01	-8.8853e-02	-9.2906e-02	2.2313e+02
350	2.4054e-01	5.8051e-02	-4.6808e-02	2.9192e-02	1.3640e+03
351	1.8157e-01	1.1072e-01	-3.6948e-02	4.6865e-02	9.9476e+02
352	1.8402e+00	1.2193e-01	-1.1650e-01	-5.0957e-02	8.0199e+02
353	3.4790e-01	1.9656e-01	5.1147e-02	-1.3207e-01	7.6605e+02
354	5.5551e-01	3.0650e-01	2.5679e-01	-1.1317e-01	6.7738e+01
355	5.1943e-01	2.3906e-01	1.7201e-01	-9.6787e-02	5.9087e+02
356	4.1758e-01	1.2410e-01	7.0806e-02	7.1802e-02	1.3135e+03
357	1.4050e-01	1.3649e-01	-1.8451e-01	2.3316e-02	1.0922e+03
358	4.1326e-01	-4.2467e-03	-5.8533e-02	-1.6787e-01	1.7048e+03
359	2.6177e-02	4.1346e-02	-6.3739e-02	5.9481e-02	6.3432e+02
360	3.7152e-01	5.9461e-02	1.2276e-01	-1.4455e-01	1.7960e+03
361	2.7409e-01	1.7689e-01	1.1089e-02	-1.0211e-01	7.2234e+02
362	1.1556e-01	1.6143e-01	-1.9636e-01	-2.2251e-02	8.4455e+02
363	4.0831e-01	1.0837e-01	-8.7110e-03	3.7044e-02	1.4319e+03
364	1.7749e-01	1.3350e-01	-1.3191e-01	-1.8544e-02	8.6432e+02
365	7.0395e-01	2.7068e-01	2.1376e-01	1.1094e-01	3.8126e+02
366	6.3065e-01	5.0121e-02	-3.7550e-02	-1.0758e-01	2.2310e+03
367	4.1088e-01	1.4030e-01	1.0514e-01	8.0981e-02	1.2965e+03
368	2.7206e-01	2.3562e-01	-8.0027e-02	-2.4190e-02	4.2930e+01
369	1.3627e-01	7.5238e-02	2.2901e-02	3.1139e-02	9.2837e+02
370	6.9926e-01	7.3881e-02	3.4631e-02	-4.6283e-02	1.5891e+03
371	1.6882e-01	1.9144e-01	-3.9760e-02	-8.6569e-02	5.0068e+02
372	6.0009e-01	3.0099e-01	3.2330e-01	-1.7267e-01	1.3456e+02
373	1.0484e-01	1.5812e-01	-2.7452e-01	-9.1461e-03	1.3238e+02
374	1.3228e-01	4.5727e-02	2.4062e-02	5.8644e-02	1.0444e+03
375	6.0796e-01	2.1198e-01	2.2318e-01	-4.6702e-02	7.6592e+02
376	7.5825e-01	2.6176e-01	2.2865e-01	1.8036e-01	4.9188e+02
377	1.7898e-02	1.3996e-02	3.1491e-02	1.2635e-02	4.0568e+02
378	2.8986e-01	2.2301e-01	-1.4573e-02	-8.8207e-02	2.2069e+02
379	4.2859e-01	2.2538e-02	1.8721e-01	7.5615e-02	1.3757e+03
380	2.7293e-01	5.1977e-02	-2.1549e-02	-1.0981e-01	1.5406e+03
381	9.1678e-01	3.0328e-01	2.8324e-02	1.9037e-01	1.3328e+02
382	9.9283e-01	2.7729e-01	1.7014e-02	7.3483e-02	7.4927e+01
383	6.4018e-01	9.5660e-02	3.6946e-02	-5.8271e-02	1.8024e+03
384	3.1599e-01	2.4394e-01	-4.5650e-02	-1.6411e-01	1.2877e+02
385	1.1798e-01	7.6098e-02	4.1121e-02	2.0593e-02	7.9710e+02
386	-6.3127e-03	8.1338e-03	2.3268e-02	1.6008e-02	1.0868e+03
387	5.3984e-01	1.8066e-01	1.6023e-01	-1.1273e-01	1.1054e+03
388	3.0168e-01	1.6865e-01	4.1959e-02	-1.2880e-01	8.7218e+02
389	6.0937e-01	2.8292e-01	3.3824e-01	-1.7413e-02	2.6718e+02
390	7.5916e-02	2.7002e-02	9.1967e-02	3.7337e-02	8.7760e+02
391	4.1806e-01	2.1383e-01	4.8430e-02	-1.1602e-02	6.9424e+02
392	3.5064e-02	6.4679e-02	1.1794e-01	5.5633e-02	6.0271e+02
393	3.9390e-01	2.3228e-01	-5.2950e-03	-9.6628e-03	4.1366e+02
394	2.8279e-01	1.8074e-01	5.7415e-02	4.6943e-03	6.2159e+02
395	7.3113e-01	2.9779e-01	2.7540e-01	3.4961e-02	2.6680e+02
396	1.4116e-01	1.9198e-01	-1.1502e-01	2.1051e-03	-8.7342e+02
397	8.5610e-02	1.5815e-02	3.1525e-02	-5.2579e-02	9.9114e+02
398	2.4402e-01	4.6743e-02	-7.1126e-03	7.7616e-02	1.4321e+03
399	-3.3945e-03	2.3470e-02	1.0528e-01	-5.3746e-02	1.0972e+03
400	6.9798e-02	2.9775e-02	-1.0589e-01	-4.8509e-02	9.2120e+02
401	6.0845e-01	6.6408e-02	7.6889e-02	8.4077e-02	1.9110e+03
402	1.2737e-01	5.5930e-02	3.0896e-02	6.9044e-02	7.8227e+02
403	2.6589e-02	1.4321e-01	-1.1015e-01	2.3444e-01	-1.1806e+02
404	2.9533e-01	6.8470e-02	6.9998e-02	-4.6269e-02	1.6468e+03
405	3.5723e-01	1.8315e-01	6.7538e-02	-8.7368e-02	8.5998e+02
406	4.8561e-02	7.8295e-02	2.7771e-02	1.5210e-01	3.3733e+02
407	4.5953e-01	-3.2944e-03	-2.3914e-02	4.3025e-02	1.8739e+03
408	3.0368e-01	5.2623e-02	3.1570e-02	-1.2673e-01	1.7628e+03
409	4.7143e-01	1.6410e-01	9.8390e-02	6.2878e-02	1.1325e+03
410	5.5403e-01	8.9736e-02	4.6833e-02	2.0916e-02	2.0819e+03
411	2.7659e-01	1.1111e-01	4.6760e-02	1.3244e-02	1.2421e+03
412	1.5342e-02	6.0066e-02	-6.8810e-02	1.5568e-03	4.2073e+02
413	6.7137e-02	-3.5641e-03	3.6781e-02	1.2428e-01	8.8526e+02
414	5.3661e-01	2.5030e-01	3.0274e-01	-9.9913e-02	5.3311e+02
415	3.4676e-01	2.4423e-01	6.1445e-02	-4.8459e-02	3.3447e+02
416	2.0280e-01	1.8957e-01	-8.3962e-02	-6.7801e-02	3.9040e+02
417	3.4270e-01	1.0215e-01	4.5850e-02	4.4914e-03	1.5538e+03
418	3.0007e-01	2.0946e-01	5.2169e-03	-1.0031e-01	4.7752e+02
419	1.4018e-01	1.1844e-01	-1.1295e-01	-1.9688e-02	9.4465e+02
420	2.2179e-01	2.1491e-01	-2.5380e-02	-8.6366e-02	1.4775e+02
421	2.2952e-02	1.1053e-01	2.8368e-01	-3.0160e-01	1.8408e+02
422	7.6895e-01	3.4885e-01	2.7741e-01	2.4292e-01	0.0000e+00
423	3.8357e-01	2.5794e-01	5.2398e-02	-9.4989e-02	2.5046e+02
424	2.1137e-01	7.8532e-02	5.4619e-02	5.9509e-02	1.0956e+03
425	3.2882e-01	-2.3951e-03	-7.7629e-02	9.1971e-03	2.0132e+03
426	3.1281e-01	1.1666e-01	4.2182e-02	1.5613e-02	1.3531e+03
427	1.5451e-01	1.9736e-01	-3.1207e-02	-5.8541e-02	-3.2933e+02
428	1.5491e-01	1.7432e-01	-1.1673e-01	-1.0901e-02	1.2642e+03
429	5.1671e-01	2.9994e-01	2.7400e-01	-1.1731e-01	4.1435e+01
430	7.0693e-01	-1.7308e-03	-5.1527e-02	1.5646e-01	2.0165e+03
431	1.5278e-01	7.9772e-02	7.5742e-02	4.0633e-02	8.0803e+02
432	3.9072e-01	2.0698e-01	4.5998e-02	-1.4812e-01	6.7136e+02
433	4.6123e-02	2.0391e-01	4.0338e-01	1.8222e-01	0.0000e+00
434	1.3717e-01	1.6031e-01	-8.9730e-02	1.0693e-01	6.3313e+01
435	4.3155e-01	2.1917e-01	1.5176e-01	-4.9679e-02	5.1156e+02
436	7.2761e-01	3.2089e-02	3.2604e-02	-7.4040e-02	1.6692e+03
437	2.7406e-01	2.3214e-01	1.3348e-02	-8.7997e-02	2.2397e+02
438	5.9742e-01	2.2649e-01	2.4804e-01	-1.5062e-01	7.0323e+02
439	4.6218e-01	2.8484e-01	2.2637e-01	-6.9596e-02	-6.3752e+01
440	4.9158e-01	1.4897e-01	7.2804e-02	-6.2664e-02	1.3381e+03
441	2.9287e-01	1.0812e-01	5.9725e-02	-1.8330e-02	1.3330e+03
442	5.9144e-01	6.5981e-02	6.7563e-02	-1.2268e-01	2.2590e+03
443	1.9910e-01	6.5750e-02	3.1100e-02	-8.7654e-03	1.2158e+03
444	4.3543e-01	6.2005e-02	2.8985e-02	-1.5845e-01	1.5695e+03
445	1.0830e+00	2.1064e-01	-1.0730e-02	-5.9261e-03	4.2928e+02
446	2.9042e-02	8.4494e-02	2.0215e-01	-2.2226e-01	3.4845e+02
447	4.3296e-02	2.8215e-02	4.3169e-02	3.2622e-03	7.1393e+02
448	1.7327e-01	-2.0357e-02	2.5896e-01	4.9697e-02	7.6191e+01
449	3.1541e-01	4.4207e-02	1.0713e-02	1.8228e-02	1.6959e+03
450	6.5319e-02	5.4474e-02	1.5063e-01	-6.7609e-02	6.5685e+02
451	6.7791e-02	1.3698e-01	3.7962e-02	-1.2205e-01	-1.9801e+03
452	2.7491e-01	-1.5656e-02	4.3027e-01	5.5535e-02	3.9523e+02
453	1.8386e-01	6.6343e-02	-7.3405e-03	4.9075e-02	1.0470e+03
454	3.8737e-01	5.8902e-02	6.6522e-02	2.2423e-02	1.7943e+03
455	1.6296e-01	2.2126e-01	-1.0276e-01	-2.4631e-02	0.0000e+00
456	2.1895e-01	1.4508e-01	-7.4649e-02	-3.4433e-02	8.3063e+02
457	1.7912e-01	-1.1140e-03	-1.3784e-02	-1.8949e-01	1.0741e+03
458	1.5808e-01	-1.2617e-03	6.5993e-02	-5.9981e-03	1.2991e+03
459	8.5683e-02	3.2153e-02	-5.4893e-02	3.6355e-02	8.9873e+02
460	1.1188e-01	1.2332e-01	-1.5538e-01	6.2961e-03	4.0593e+02
461	4.5973e-01	2.5894e-01	2.1965e-01	-1.4800e-01	2.4719e+02
462	1.3196e-02	2.0950e-01	3.4274e-01	2.8988e-01	0.0000e+00
463	6.8874e-02	3.7639e-02	6.0938e-02	1.6279e-02	8.8733e+02
464	2.0433e-01	1.2951e-01	1.6898e-02	-7.5814e-02	9.5292e+02
465	2.7851e-02	1.3386e-01	-3.2902e-01	-1.5442e-01	-1.0067e+03
466	1.9063e-01	1.8289e-01	1.5331e-03	-1.0854e-01	3.3793e+01
467	3.5955e-01	1.5787e-01	7.3458e-02	-4.1733e-02	1.0508e+03
468	3.8779e-02	1.6047e-03	-4.3589e-02	1.0868e-01	9.0430e+02
469	4.9524e-01	2.4594e-01	2.3770e-01	-9.3203e-02	4.8321e+02
470	3.0339e-02	3.9930e-02	1.6295e-02	1.0618e-01	7.5683e+02
471	3.0512e-01	1.7187e-02	-3.6384e-02	9.6373e-03	1.3144e+03
472	2.1500e-01	1.9057e-01	2.2580e-02	-1.3701e-01	4.8696e+02
473	3.2243e-01	2.4560e-01	1.6887e-03	-1.3991e-01	8.7993e+01
474	1.4146e-01	9.1614e-02	-1.2453e-01	7.8852e-03	8.7719e+02
475	2.7275e-02	1.8486e-01	-4.2130e-01	-2.3312e-02	0.0000e+00
476	5.6863e-01	4.2679e-02	9.5813e-02	-6.3611e-02	2.6299e+03
477	5.6505e-01	1.5921e-01	1.3161e-01	-4.2846e-02	1.3289e+03
478	3.7006e-01	2.6436e-01	5.5228e-02	-1.7924e-01	0.0000e+00
479	4.6804e-01	2.0105e-01	1.7814e-01	-7.6146e-02	8.1981e+02
480	3.2506e-01	2.4812e-01	2.3775e-02	-1.1609e-01	4.8075e+01
481	5.6746e-01	2.1735e-01	2.1212e-01	-1.4869e-01	8.1411e+02
482	5.2249e-01	1.8761e-01	1.9216e-01	-4.1563e-02	1.0809e+03
483	1.9286e-01	1.2571e-02	7.7186e-02	-1.2640e-01	1.4788e+03
484	2.8094e-01	2.0328e-01	-1.5413e-02	-6.2786e-02	4.8694e+02
485	2.4414e-01	1.2145e-03	-1.0228e-01	1.7745e-01	1.5414e+03
486	4.0127e-01	2.3457e-01	7.8240e-02	-1.0206e-01	3.1123e+02
487	5.4915e-01	2.8189e-01	2.9277e-01	-5.1268e-02	2.5260e+02
488	5.6610e-01	2.3784e-01	2.8582e-01	-1.1096e-01	6.8200e+02
489	3.4858e-01	5.2255e-02	3.0448e-02	5.8387e-02	1.8578e+03
490	7.2200e-02	1.3986e-01	-7.5239e-02	1.2359e-02	-1.7173e+03
491	1.4649e-01	1.8218e-01	-9.0733e-03	-1.6621e-01	6.8915e+02
492	4.1701e-02	1.5491e-01	-1.5508e-01	-6.3716e-02	-1.0218e+02
493	2.6314e-01	1.9931e-01	-2.8335e-02	-2.6732e-02	3.9351e+02
494	1.7752e-01	1.3984e-01	-2.0922e-02	1.2265e-01	7.9691e+02
495	2.1884e-01	1.9427e-01	1.2186e-02	-4.1665e-02	4.4423e+02
496	7.3793e-01	3.0287e-01	2.0695e-01	1.0685e-01	2.4499e+02
497	1.2313e-01	1.6831e-01	-1.1929e-01	-3.4240e-02	2.5459e+03
498	4.4494e-02	5.4240e-02	4.9935e-02	-2.2661e-01	6.9364e+02
499	3.8261e-01	2.0204e-02	-1.3160e-01	-1.4199e-02	2.0210e+03